ITEM: TIMESTEP
10000
ITEM: NUMBER OF ATOMS
100
ITEM: BOX BOUNDS xy xz yz pp pp pp
0.0000000000000000e+00 1.0211494999999999e+01 0.0000000000000000e+00
0.0000000000000000e+00 1.0211494999999999e+01 0.0000000000000000e+00
0.0000000000000000e+00 1.0211494999999999e+01 0.0000000000000000e+00
ITEM: ATOMS id type xs ys zs
32 1 0.269504 0.133189 0.0955458
39 1 0.209561 0.370119 0.157101
2 1 0.424324 0.434102 0.165365
85 1 0.4625 0.20797 0.143615
74 1 0.0370451 0.186458 0.11929
67 1 0.148901 0.0255431 0.24994
43 1 0.231887 0.219687 0.322082
8 1 0.256142 0.409141 0.453846
66 1 0.124056 0.240324 0.490306
15 1 0.069757 0.468507 0.315207
95 1 0.430606 0.324985 0.382829
35 1 0.241948 0.043452 0.468257
37 1 0.433848 0.109493 0.363886
42 1 0.160015 0.418255 0.678248
91 1 0.267998 0.0518438 0.727405
89 1 0.0560102 0.0772547 0.606115
41 1 0.00561304 0.481678 0.534748
28 1 0.337928 0.214181 0.570949
99 1 0.43869 0.422525 0.566346
57 1 0.348683 0.445076 0.78287
12 1 0.184012 0.220192 0.797636
44 1 0.0546528 0.335199 0.961821
29 1 0.428021 0.233756 0.788155
1 1 0.114051 0.0795564 0.928286
77 1 0.38891 0.0431798 0.903642
3 1 0.326426 0.302694 0.960116
75 1 0.186208 0.479709 0.959495
16 1 0.270307 0.921742 0.0425802
47 1 0.0877528 0.61002 0.133078
93 1 0.274814 0.591793 0.24041
87 1 0.498053 0.96134 0.0712879
24 1 0.414809 0.734828 0.170419
64 1 0.0438938 0.903027 0.039049
49 1 0.185824 0.779715 0.245942
19 1 0.222217 0.713195 0.008217
18 1 0.464541 0.542117 0.353069
76 1 0.166818 0.647632 0.447751
65 1 0.362696 0.741385 0.394079
88 1 0.0923133 0.891204 0.423356
9 1 0.344478 0.937802 0.255883
59 1 0.218936 0.81787 0.586601
70 1 0.0406966 0.685923 0.609237
22 1 0.436363 0.953256 0.514204
33 1 0.323063 0.587166 0.589384
31 1 0.392896 0.761674 0.701606
36 1 0.0293041 0.924653 0.737021
5 1 0.493094 0.982615 0.714116
45 1 0.443306 0.774255 0.919007
53 1 0.234823 0.85852 0.827242
96 1 0.0391218 0.73463 0.871199
94 1 0.406914 0.572008 0.970554
51 1 0.208776 0.620838 0.776177
6 1 0.620153 0.0292124 0.236428
86 1 0.6648 0.228083 0.0807368
4 1 0.888557 0.363337 0.11508
90 1 0.707798 0.478877 0.05739
71 1 0.866977 0.118944 0.0211706
27 1 0.936193 0.0449169 0.339384
68 1 0.819433 0.424087 0.321698
69 1 0.651006 0.460772 0.499422
92 1 0.663319 0.256976 0.447601
55 1 0.629661 0.0255261 0.456491
17 1 0.994852 0.253576 0.306146
14 1 0.617814 0.399862 0.254014
25 1 0.775734 0.193394 0.255474
56 1 0.899794 0.285541 0.510466
7 1 0.806134 0.431536 0.677366
11 1 0.823474 0.0450973 0.544736
83 1 0.763559 0.214544 0.671443
84 1 0.560205 0.158664 0.641691
34 1 0.590097 0.358522 0.722412
73 1 0.997482 0.308115 0.716284
10 1 0.733491 0.0110216 0.746403
13 1 0.927594 0.125347 0.80691
48 1 0.647323 0.174927 0.859931
46 1 0.548294 0.370122 0.957718
97 1 0.827482 0.338821 0.905992
54 1 0.864947 0.73294 0.00969853
50 1 0.586747 0.608529 0.178623
20 1 0.681159 0.817412 0.149887
81 1 0.854704 0.609402 0.187169
60 1 0.844329 0.965775 0.17394
58 1 0.985793 0.800346 0.217754
52 1 0.695809 0.66883 0.347133
82 1 0.777487 0.853789 0.369023
98 1 0.548201 0.842191 0.339575
63 1 0.925924 0.646885 0.397544
79 1 0.772304 0.643185 0.549864
30 1 0.670953 0.856105 0.583406
38 1 0.893376 0.841983 0.546313
100 1 0.531809 0.670247 0.524618
72 1 0.992678 0.538734 0.760337
26 1 0.948918 0.538614 0.974357
80 1 0.748097 0.553429 0.838567
62 1 0.621033 0.808454 0.79164
23 1 0.878664 0.919431 0.901509
61 1 0.641463 0.669442 0.982904
40 1 0.687434 0.960319 0.979139
78 1 0.524057 0.578462 0.757272
21 1 0.829778 0.748394 0.752773
ITEM: TIMESTEP
20000
ITEM: NUMBER OF ATOMS
100
ITEM: BOX BOUNDS xy xz yz pp pp pp
0.0000000000000000e+00 1.0211494999999999e+01 0.0000000000000000e+00
0.0000000000000000e+00 1.0211494999999999e+01 0.0000000000000000e+00
0.0000000000000000e+00 1.0211494999999999e+01 0.0000000000000000e+00
ITEM: ATOMS id type xs ys zs
9 1 0.0270362 0.0622274 0.204627
5 1 0.400411 0.0450911 0.159791
24 1 0.268102 0.187619 0.0988035
41 1 0.430965 0.25757 0.225242
37 1 0.290044 0.446358 0.158689
4 1 0.0623818 0.296603 0.195272
67 1 0.47491 0.198096 -0.00220096
100 1 0.442933 0.378897 0.395903
68 1 0.223295 0.330755 0.35504
35 1 0.387772 0.155295 0.451708
69 1 0.243857 0.120154 0.305047
56 1 0.0294773 0.198816 0.400178
12 1 0.467576 0.337239 0.624225
89 1 0.27417 0.207794 0.604244
17 1 0.115896 0.0879773 0.613237
83 1 0.0764692 0.341667 0.586655
52 1 0.271888 0.44602 0.564257
90 1 0.307244 -0.0278946 0.700662
39 1 0.126353 0.363324 0.988223
72 1 0.373938 0.387165 0.958027
8 1 0.109815 0.263951 0.773329
77 1 0.24966 0.152827 0.879967
44 1 0.270237 0.399734 0.773862
66 1 0.418503 0.188069 0.787196
48 1 -0.00823417 0.480665 0.791211
1 1 0.0593166 0.132157 1.00458
53 1 0.130363 -0.00501307 0.822943
93 1 0.429017 0.599501 0.225543
47 1 0.238456 0.662872 0.111988
45 1 0.043807 0.612695 0.244309
40 1 0.209199 0.970252 0.0503726
70 1 0.455904 0.823218 0.142978
82 1 -0.0176655 0.818723 0.213376
33 1 0.229767 0.856732 0.204153
59 1 0.242823 0.535533 0.365625
94 1 0.352307 0.789276 0.370824
63 1 0.278428 0.951726 0.49572
2 1 0.112255 0.74779 0.392657
65 1 0.472913 0.958606 0.405439
23 1 0.0267688 0.595501 0.559776
88 1 0.15142 0.822687 0.660893
30 1 0.421997 0.540437 0.709441
49 1 0.262914 0.687408 0.528468
42 1 0.33727 0.755554 0.779406
60 1 0.429557 0.716335 0.980034
19 1 0.173868 0.802449 0.931875
95 1 0.0912431 0.595689 0.9943
73 1 0.181124 0.605351 0.712052
32 1 0.400825 0.949551 0.935979
3 1 0.291092 0.572569 0.91085
50 1 0.970602 0.459005 0.100087
80 1 0.771957 0.448865 0.0542028
54 1 0.65282 0.175709 0.190814
34 1 0.865488 0.18964 0.12388
81 1 0.562133 0.390213 0.112795
16 1 0.824597 0.0982517 0.33354
84 1 0.638463 0.251542 0.395789
43 1 0.667429 0.00095261 0.466853
20 1 0.841127 0.296812 0.454731
76 1 1.01439 0.445231 0.363517
79 1 0.731358 0.497191 0.503334
46 1 0.786376 0.424297 0.260657
74 1 0.880916 0.226653 0.730342
6 1 0.528834 0.094216 0.617749
64 1 0.893624 0.0658075 0.569264
55 1 0.675534 0.257404 0.612011
51 1 0.872351 0.442395 0.638043
97 1 0.778281 0.444793 0.831289
87 1 0.840523 0.0943656 0.916716
29 1 0.700995 0.0839376 0.752614
57 1 0.697575 0.250058 1.00786
18 1 0.906944 0.303959 0.925292
36 1 0.594663 0.284521 0.816842
85 1 0.620485 -0.00546864 1.00145
75 1 0.83602 0.969667 0.144189
86 1 0.78402 0.671596 0.223779
99 1 0.612129 0.606191 0.125934
27 1 0.666165 0.81468 0.0670077
14 1 0.637046 0.95927 0.231575
15 1 0.911527 0.685162 0.0163412
26 1 0.585901 0.754857 0.318705
31 1 0.823124 0.845405 0.35982
58 1 0.859904 0.617026 0.410141
96 1 1.04136 0.960384 0.398666
7 1 0.598182 0.511431 0.323093
13 1 0.749375 0.855816 0.6467
11 1 0.830339 0.663907 0.680296
22 1 0.476988 0.801693 0.576366
92 1 0.950784 0.807065 0.549922
71 1 0.939015 0.950534 0.756016
98 1 0.473088 0.562514 0.501316
10 1 0.673073 0.71093 0.507339
91 1 0.628568 0.487875 0.686849
38 1 0.978891 0.717482 0.801608
61 1 0.724744 0.657961 0.866878
28 1 0.751765 0.866006 0.876466
78 1 0.546965 0.536228 0.907859
25 1 0.516745 0.938088 0.745035
21 1 0.993891 0.904654 0.986126
62 1 0.553257 0.719608 0.765522
ITEM: TIMESTEP
30000
ITEM: NUMBER OF ATOMS
100
ITEM: BOX BOUNDS xy xz yz pp pp pp
0.0000000000000000e+00 1.0211494999999999e+01 0.0000000000000000e+00
0.0000000000000000e+00 1.0211494999999999e+01 0.0000000000000000e+00
0.0000000000000000e+00 1.0211494999999999e+01 0.0000000000000000e+00
ITEM: ATOMS id type xs ys zs
65 1 0.442535 0.0114251 0.151048
93 1 0.273905 0.363305 0.206717
1 1 0.0995632 0.0903654 0.0436348
41 1 0.0420583 0.301159 0.109103
40 1 0.25745 0.127426 0.212067
80 1 0.435545 0.39998 0.0165842
4 1 0.0825553 0.477958 0.236361
46 1 0.486884 0.225485 0.214454
54 1 0.291278 0.0701764 -0.000172558
64 1 0.156752 0.0770573 0.407043
5 1 0.303788 0.232448 0.388552
96 1 0.4553 0.0276055 0.373041
6 1 0.445819 0.421395 0.365787
76 1 0.228503 0.457089 0.405217
68 1 0.0538732 0.287715 0.339392
37 1 0.131424 0.533031 0.57327
56 1 0.137637 0.256879 0.542913
35 1 0.324185 0.122922 0.588474
89 1 0.374165 0.364038 0.588447
71 1 -0.0127058 0.109638 0.60131
24 1 0.123872 0.465459 0.898218
29 1 0.507796 0.14452 0.945681
73 1 0.499555 0.469224 0.810056
53 1 0.0304322 0.257477 0.888054
81 1 0.268809 0.279894 0.980755
78 1 0.395303 0.259864 0.795885
66 1 0.191258 0.343934 0.746651
90 1 0.166913 0.129716 0.745992
47 1 0.355656 0.796939 0.235407
100 1 0.241433 0.551809 0.0572101
16 1 0.157736 0.890411 0.156803
49 1 0.393789 0.574682 0.234992
33 1 0.270365 0.879432 0.434543
27 1 0.501086 0.791638 0.410662
45 1 0.206028 0.660276 0.297309
94 1 0.397636 0.903149 0.617959
2 1 0.145034 0.756424 0.575675
42 1 0.305667 0.535711 0.736636
59 1 0.137077 0.969909 0.614759
30 1 0.472422 0.675008 0.690715
67 1 0.285803 0.782327 0.769685
48 1 0.0638034 0.627054 0.766015
52 1 0.343206 0.649158 0.49597
63 1 0.360204 0.992755 0.815795
39 1 0.384748 0.648788 0.916051
17 1 0.156762 0.922382 0.861472
88 1 0.147935 0.725289 0.96837
70 1 0.337672 0.838691 1.02469
85 1 -0.0221392 0.885601 0.990077
95 1 0.59038 0.431434 0.187162
75 1 0.862589 0.0896357 0.0422922
57 1 0.665077 0.232668 0.0755251
9 1 0.832516 0.289074 0.208658
50 1 0.958543 0.436302 0.458487
31 1 0.969215 0.0939007 0.237488
74 1 0.866975 0.232956 0.418672
7 1 0.693409 0.374726 0.376149
20 1 0.693559 0.145208 0.305582
79 1 0.777703 0.387721 0.582525
51 1 0.999756 0.374971 0.675525
36 1 0.572168 0.32913 0.645858
55 1 0.509494 0.101621 0.690478
84 1 0.712763 0.156395 0.57232
12 1 0.539227 0.223541 0.46077
82 1 0.94847 0.0683614 0.838834
18 1 0.684332 0.0639104 0.850771
61 1 0.640408 0.292615 0.850033
8 1 0.848599 0.312424 0.991791
38 1 0.863583 0.487592 0.82511
44 1 0.680166 0.497892 0.944067
97 1 0.830278 0.267735 0.774482
26 1 0.59061 0.807372 0.182797
21 1 1.02045 0.71477 0.176895
15 1 0.774155 0.671856 0.0933856
86 1 0.860962 0.912709 0.197587
72 1 0.544195 0.606999 0.0771342
14 1 0.654955 1.00545 0.0999474
19 1 0.982616 0.516195 0.0453247
99 1 0.855875 0.520255 0.227362
34 1 0.66874 0.932231 0.326834
11 1 0.806621 0.721241 0.305706
98 1 0.604336 0.615331 0.32088
13 1 0.862776 1.00829 0.432515
10 1 0.775991 0.574079 0.45213
58 1 1.00536 0.640649 0.410765
92 1 1.05218 0.882274 0.353661
87 1 0.825465 0.976327 0.69388
23 1 0.879614 0.809175 0.532471
43 1 0.672407 0.760463 0.535787
60 1 0.75547 0.753267 0.744919
83 1 0.89771 0.614595 0.626293
69 1 0.590376 0.976179 0.525908
91 1 0.515495 0.527204 0.542263
25 1 0.586022 0.885906 0.728731
77 1 0.987431 0.828403 0.721701
22 1 0.691052 0.55485 0.68207
3 1 0.594556 0.7015 0.87317
28 1 0.741656 0.863273 0.964345
62 1 0.898075 0.691783 0.90653
32 1 0.529259 0.872941 0.961105
ITEM: TIMESTEP
40000
ITEM: NUMBER OF ATOMS
100
ITEM: BOX BOUNDS xy xz yz pp pp pp
0.0000000000000000e+00 1.0211494999999999e+01 0.0000000000000000e+00
0.0000000000000000e+00 1.0211494999999999e+01 0.0000000000000000e+00
0.0000000000000000e+00 1.0211494999999999e+01 0.0000000000000000e+00
ITEM: ATOMS id type xs ys zs
46 1 0.439728 0.105181 0.144041
93 1 0.191168 0.250034 0.169868
40 1 0.225266 0.0464558 0.235793
80 1 0.443052 0.303715 0.0548757
54 1 0.224641 0.063281 0.0137747
1 1 0.0103686 0.19426 0.0422945
41 1 0.0204103 0.410915 0.0234485
99 1 0.00242337 0.463041 0.247685
49 1 0.476609 0.498292 0.208607
100 1 0.237657 0.465241 0.103344
12 1 0.402873 0.288312 0.280461
5 1 0.203017 0.188919 0.435943
4 1 0.202002 0.401162 0.322323
96 1 0.393902 0.0670881 0.361911
68 1 0.00651722 0.176423 0.273045
50 1 0.014852 0.309396 0.451725
89 1 0.343594 0.156154 0.600808
56 1 0.128684 0.280067 0.6241
59 1 0.0790753 0.0708653 0.582341
76 1 0.351807 0.351879 0.505349
37 1 0.155994 0.497324 0.546838
29 1 0.405175 0.142578 0.895147
81 1 0.208129 0.277665 0.95008
90 1 0.166078 0.104266 0.787358
66 1 0.342704 0.47312 0.903866
51 1 0.132452 0.443588 0.796518
78 1 0.311607 0.305615 0.75375
16 1 0.210149 0.828164 0.0844822
21 1 0.0290694 0.751416 0.2004
31 1 0.0438742 0.968504 0.140676
45 1 0.289923 0.646914 0.199726
65 1 0.392563 0.883657 0.232993
32 1 0.414176 0.92173 0.00182856
33 1 0.177329 0.846112 0.332299
58 1 0.133988 0.617639 0.350919
52 1 0.354572 0.564778 0.410344
47 1 0.428746 0.790865 0.432807
92 1 0.00612933 0.761171 0.484992
17 1 0.0801964 0.854623 0.675621
42 1 0.332335 0.543538 0.655888
94 1 0.249729 0.956059 0.512254
30 1 0.376005 0.795711 0.653211
2 1 0.211958 0.716243 0.524409
63 1 0.433944 0.987294 0.739653
67 1 0.260771 0.884692 0.840548
48 1 0.215782 0.665991 0.783006
73 1 0.352389 0.694099 0.974389
85 1 0.0693601 0.920715 0.910524
88 1 0.122855 0.625662 0.996512
75 1 0.827082 0.0949228 0.162139
9 1 0.853674 0.314824 0.170125
57 1 0.637887 0.203116 0.0613891
6 1 0.628253 0.328543 0.234353
95 1 0.766499 0.460779 0.358029
7 1 0.558178 0.434979 0.433155
74 1 0.762766 0.235765 0.38455
84 1 0.538177 0.210056 0.47287
13 1 0.761053 0.0190001 0.426735
20 1 0.62293 0.0959458 0.276116
69 1 0.547153 0.00463347 0.496807
36 1 0.511323 0.409003 0.684099
87 1 0.711979 0.324844 0.576898
38 1 0.923417 0.386988 0.658712
71 1 0.872934 0.15449 0.562277
77 1 0.691674 0.0425802 0.663093
35 1 0.572915 0.208073 0.693525
97 1 0.821374 0.0838322 0.947399
55 1 0.774024 0.234203 0.78117
61 1 0.600708 0.336067 0.88058
8 1 0.790262 0.379037 0.977495
18 1 0.607227 0.0551326 0.890114
79 1 0.706251 0.498101 0.760621
53 1 0.99027 0.277388 0.839463
82 1 0.945195 0.0454266 0.769558
19 1 0.909985 0.598536 0.0595698
26 1 0.719564 0.739735 0.120546
15 1 0.872774 0.870672 0.0336541
14 1 0.641023 0.94506 0.105246
70 1 0.507644 0.725894 0.143419
72 1 0.712822 0.520752 0.144826
98 1 0.607189 0.650046 0.332256
34 1 0.608823 0.869224 0.307198
86 1 0.853425 0.874467 0.264037
43 1 0.771693 0.772036 0.458768
11 1 0.863174 0.652354 0.290439
10 1 0.945238 0.523611 0.453397
64 1 0.970922 0.990067 0.409208
25 1 0.580677 0.836701 0.641235
23 1 0.867316 0.925785 0.606991
60 1 0.77591 0.722769 0.684112
91 1 0.735344 0.555681 0.553351
27 1 0.533688 0.636671 0.558886
83 1 0.993521 0.615839 0.680821
24 1 0.917537 0.508741 0.860392
28 1 0.780289 0.888037 0.829059
44 1 0.737269 0.657956 0.909766
22 1 0.511642 0.636721 0.809938
3 1 0.574378 0.820375 0.878198
62 1 0.94311 0.73429 0.851892
39 1 0.536209 0.529837 0.998745
ITEM: TIMESTEP
50000
ITEM: NUMBER OF ATOMS
100
ITEM: BOX BOUNDS xy xz yz pp pp pp
0.0000000000000000e+00 1.0211494999999999e+01 0.0000000000000000e+00
0.0000000000000000e+00 1.0211494999999999e+01 0.0000000000000000e+00
0.0000000000000000e+00 1.0211494999999999e+01 0.0000000000000000e+00
ITEM: ATOMS id type xs ys zs
46 1 0.438576 0.141281 0.144488
93 1 0.252598 0.26688 0.159732
40 1 0.150608 0.0779383 0.212552
80 1 0.469616 0.351703 0.0321202
99 1 0.06402 0.390498 0.192058
49 1 0.4516 0.483767 0.221136
12 1 0.411563 0.266538 0.353825
5 1 0.151691 0.224541 0.372266
4 1 0.252663 0.424681 0.304178
96 1 0.329033 0.0516769 0.3529
37 1 0.141678 0.470985 0.505125
89 1 0.32888 0.13784 0.551436
56 1 0.11341 0.23574 0.583444
59 1 0.145297 -0.00580654 0.513789
76 1 0.334352 0.367087 0.531745
82 1 0.025983 0.0429966 0.701658
78 1 0.399202 0.27002 0.727977
51 1 0.204326 0.401421 0.732659
29 1 0.461229 0.149836 0.906625
81 1 0.285364 0.287258 0.915555
53 1 0.0853654 0.232819 0.815235
54 1 0.264375 0.069515 1.00507
66 1 0.390148 0.481405 0.860686
90 1 0.251717 0.0808794 0.762497
41 1 0.0977324 0.412837 0.951929
16 1 0.138857 0.87858 0.0663452
88 1 0.100663 0.639076 0.0429603
70 1 0.43513 0.711945 0.226244
100 1 0.269906 0.476525 0.0806563
65 1 0.3364 0.919877 0.168906
73 1 0.307044 0.72102 0.0276883
33 1 0.149145 0.854635 0.302986
58 1 0.0300266 0.557115 0.335419
52 1 0.359108 0.582375 0.414618
47 1 0.356446 0.819736 0.401609
2 1 0.174419 0.693394 0.504062
45 1 0.209372 0.646451 0.237202
17 1 0.0660048 0.822998 0.663247
42 1 0.318011 0.596368 0.643466
94 1 0.302753 0.856794 0.62649
83 1 0.0471255 0.610888 0.667319
63 1 0.464789 0.987764 0.751275
67 1 0.209792 0.862036 0.833626
48 1 0.19665 0.611976 0.843481
30 1 0.403515 0.742307 0.796207
85 1 0.0492196 1.01599 0.923612
32 1 0.419023 0.915302 0.94581
75 1 0.739758 0.10443 0.17764
9 1 0.822601 0.331643 0.12653
1 1 1.0583 0.213832 0.0528736
57 1 0.658007 0.235892 -0.0049116
6 1 0.606342 0.296253 0.210463
14 1 0.57562 -0.0595802 0.129467
95 1 0.768035 0.428777 0.351446
7 1 0.556365 0.409975 0.440396
74 1 0.750274 0.203656 0.383971
50 1 0.965463 0.339616 0.431484
68 1 0.940394 0.199893 0.261462
20 1 0.554766 0.0809895 0.324826
36 1 0.503134 0.450879 0.655235
87 1 0.757012 0.332679 0.580849
38 1 0.956341 0.377544 0.670478
71 1 0.906917 0.147813 0.538208
77 1 0.678607 0.0474963 0.678983
84 1 0.565964 0.195592 0.535327
97 1 0.849537 0.102479 0.969067
35 1 0.62116 0.275677 0.757658
61 1 0.637582 0.460676 0.932765
8 1 0.873235 0.333362 0.9097
18 1 0.649485 0.0213401 0.916669
55 1 0.829524 0.185733 0.755569
19 1 0.904038 0.546989 0.103465
26 1 0.664637 0.735587 0.147447
15 1 0.796104 0.859876 0.0282057
72 1 0.678423 0.512802 0.153791
21 1 0.962529 0.775317 0.163199
31 1 0.952634 1.00533 0.142185
86 1 0.785163 0.884068 0.270057
98 1 0.603001 0.618354 0.358499
34 1 0.582786 0.83825 0.345096
92 1 0.96859 0.76421 0.414329
43 1 0.744837 0.755485 0.485356
11 1 0.826104 0.632429 0.295111
64 1 0.963594 0.996371 0.373681
13 1 0.721547 1.0036 0.468667
25 1 0.650653 0.827097 0.693149
23 1 0.886391 0.916383 0.581484
60 1 0.850383 0.707657 0.709072
91 1 0.66705 0.564602 0.568027
69 1 0.488322 0.97212 0.518785
27 1 0.499029 0.720284 0.557371
10 1 0.880826 0.556463 0.535505
24 1 0.958564 0.564312 0.862243
28 1 0.850539 0.930199 0.805749
44 1 0.772634 0.655938 0.94397
22 1 0.588565 0.618914 0.77635
3 1 0.601459 0.791397 0.921979
62 1 0.994643 0.782361 0.8897
79 1 0.781437 0.493124 0.754725
39 1 0.506664 0.616353 1.03273
