LAMMPS (3 Mar 2020)
  using 1 OpenMP thread(s) per MPI task
###############################################################################

# Starting parameters
units      metal
atom_style atomic
dimension  3
boundary   p p p

###############################################################################

# START DO NOT TOUCH
read_data       input.pos
  triclinic box = (0 0 0) to (10.2115 10.2115 10.2115) with tilt (0 0 0)
  2 by 2 by 4 MPI processor grid
  reading atoms ...
  100 atoms
  read_data CPU = 0.0023064 secs
include         masses.txt
mass 1 28.085  # Si
pair_style mlip mlip.ini
pair_coeff * *
# END DO NOT TOUCH

###############################################################################

variable    start_temp equal 2000
variable    dT         equal 500
variable    iterations loop  4

timestep    0.001

# Define the trajectories used for a test set

fix         hold all nvt temp ${start_temp} ${start_temp} 0.1
fix         hold all nvt temp 2000 ${start_temp} 0.1
fix         hold all nvt temp 2000 2000 0.1
run         10000
Neighbor list info ...
  update every 1 steps, delay 10 steps, check yes
  max neighbors/atom: 2000, page size: 100000
  master list distance cutoff = 7
  ghost atom cutoff = 7
  binsize = 3.5, bins = 3 3 3
  1 neighbor lists, perpetual/occasional/extra = 1 0 0
  (1) pair mlip, perpetual
      attributes: full, newton on
      pair build: full/bin/atomonly
      stencil: full/bin/3d
      bin: standard
Per MPI rank memory allocation (min/avg/max) = 2.968 | 2.968 | 2.968 Mbytes
Step Temp E_pair E_mol TotEng Press 
       0            0   -404.03189            0   -404.03189    722349.05 
   10000    2204.5255   -407.38685            0   -379.17607    733134.94 
Loop time of 24.9488 on 16 procs for 10000 steps with 100 atoms

Performance: 34.631 ns/day, 0.693 hours/ns, 400.821 timesteps/s
82.7% CPU use with 16 MPI tasks x 1 OpenMP threads

MPI task timing breakdown:
Section |  min time  |  avg time  |  max time  |%varavg| %total
---------------------------------------------------------------
Pair    | 16.159     | 17.427     | 19.306     |  17.4 | 69.85
Neigh   | 0.006802   | 0.0071148  | 0.0074791  |   0.2 |  0.03
Comm    | 5.5389     | 7.4204     | 8.6828     |  26.7 | 29.74
Output  | 2.0654e-05 | 2.447e-05  | 7.7777e-05 |   0.0 |  0.00
Modify  | 0.05985    | 0.064176   | 0.069104   |   1.1 |  0.26
Other   |            | 0.02994    |            |       |  0.12

Nlocal:    6.25 ave 8 max 4 min
Histogram: 1 0 3 0 0 5 0 5 0 2
Nghost:    558.875 ave 574 max 541 min
Histogram: 1 2 2 0 1 1 6 0 1 2
Neighs:    0 ave 0 max 0 min
Histogram: 16 0 0 0 0 0 0 0 0 0
FullNghs:  849 ave 1084 max 535 min
Histogram: 1 0 3 0 0 5 0 5 0 2

Total # of neighbors = 13584
Ave neighs/atom = 135.84
Neighbor list builds = 158
Dangerous builds = 0

dump        testdump all atom 10000 dump.atom

label       start_loop
variable    t equal ${start_temp}-(${iterations}-1)*${dT}
variable    t equal 2000-(${iterations}-1)*${dT}
variable    t equal 2000-(1-1)*${dT}
variable    t equal 2000-(1-1)*500

fix         hold all nvt temp ${t} ${t} 0.1
fix         hold all nvt temp 2000 ${t} 0.1
fix         hold all nvt temp 2000 2000 0.1
run         10000
Per MPI rank memory allocation (min/avg/max) = 3.969 | 3.969 | 3.969 Mbytes
Step Temp E_pair E_mol TotEng Press 
   10000    2204.5255   -407.38685            0   -379.17607    733134.94 
   20000    1934.5098   -399.67586            0   -374.92041    764623.93 
Loop time of 25.1405 on 16 procs for 10000 steps with 100 atoms

Performance: 34.367 ns/day, 0.698 hours/ns, 397.764 timesteps/s
82.6% CPU use with 16 MPI tasks x 1 OpenMP threads

MPI task timing breakdown:
Section |  min time  |  avg time  |  max time  |%varavg| %total
---------------------------------------------------------------
Pair    | 15.529     | 17.465     | 19.052     |  21.1 | 69.47
Neigh   | 0.0066429  | 0.0070452  | 0.0074223  |   0.2 |  0.03
Comm    | 5.9858     | 7.5755     | 9.5115     |  32.0 | 30.13
Output  | 0.00016594 | 0.0001694  | 0.00021872 |   0.0 |  0.00
Modify  | 0.059273   | 0.063375   | 0.067536   |   0.9 |  0.25
Other   |            | 0.02986    |            |       |  0.12

Nlocal:    6.25 ave 9 max 4 min
Histogram: 1 0 5 0 2 0 6 0 1 1
Nghost:    558.25 ave 575 max 544 min
Histogram: 1 2 2 5 0 2 0 0 2 2
Neighs:    0 ave 0 max 0 min
Histogram: 16 0 0 0 0 0 0 0 0 0
FullNghs:  847.125 ave 1234 max 549 min
Histogram: 1 4 1 2 0 6 0 1 0 1

Total # of neighbors = 13554
Ave neighs/atom = 135.54
Neighbor list builds = 157
Dangerous builds = 0

next        iterations
jump        md_test.in start_loop
variable    t equal ${start_temp}-(${iterations}-1)*${dT}
variable    t equal 2000-(${iterations}-1)*${dT}
variable    t equal 2000-(2-1)*${dT}
variable    t equal 2000-(2-1)*500

fix         hold all nvt temp ${t} ${t} 0.1
fix         hold all nvt temp 1500 ${t} 0.1
fix         hold all nvt temp 1500 1500 0.1
run         10000
Per MPI rank memory allocation (min/avg/max) = 3.969 | 3.969 | 3.969 Mbytes
Step Temp E_pair E_mol TotEng Press 
   20000    1934.5098   -399.67586            0   -374.92041    764623.93 
   30000    1514.7445   -411.44266            0   -392.05885    706624.95 
Loop time of 24.9627 on 16 procs for 10000 steps with 100 atoms

Performance: 34.612 ns/day, 0.693 hours/ns, 400.598 timesteps/s
82.7% CPU use with 16 MPI tasks x 1 OpenMP threads

MPI task timing breakdown:
Section |  min time  |  avg time  |  max time  |%varavg| %total
---------------------------------------------------------------
Pair    | 15.456     | 17.445     | 19.221     |  24.9 | 69.89
Neigh   | 0.0048388  | 0.005176   | 0.0055114  |   0.3 |  0.02
Comm    | 5.6419     | 7.4184     | 9.4109     |  38.2 | 29.72
Output  | 0.00017631 | 0.00018001 | 0.00023088 |   0.0 |  0.00
Modify  | 0.0586     | 0.063037   | 0.068886   |   1.2 |  0.25
Other   |            | 0.03058    |            |       |  0.12

Nlocal:    6.25 ave 10 max 3 min
Histogram: 1 3 2 0 3 2 0 3 1 1
Nghost:    560.625 ave 574 max 550 min
Histogram: 4 1 1 0 3 3 0 1 2 1
Neighs:    0 ave 0 max 0 min
Histogram: 16 0 0 0 0 0 0 0 0 0
FullNghs:  846.875 ave 1359 max 406 min
Histogram: 1 3 2 0 3 2 0 3 1 1

Total # of neighbors = 13550
Ave neighs/atom = 135.5
Neighbor list builds = 115
Dangerous builds = 0

next        iterations
jump        md_test.in start_loop
variable    t equal ${start_temp}-(${iterations}-1)*${dT}
variable    t equal 2000-(${iterations}-1)*${dT}
variable    t equal 2000-(3-1)*${dT}
variable    t equal 2000-(3-1)*500

fix         hold all nvt temp ${t} ${t} 0.1
fix         hold all nvt temp 1000 ${t} 0.1
fix         hold all nvt temp 1000 1000 0.1
run         10000
Per MPI rank memory allocation (min/avg/max) = 3.969 | 3.969 | 3.969 Mbytes
Step Temp E_pair E_mol TotEng Press 
   30000    1514.7445   -411.44266            0   -392.05885    706624.95 
   40000    1071.8343   -417.65568            0   -403.93968    666638.01 
Loop time of 25.4535 on 16 procs for 10000 steps with 100 atoms

Performance: 33.944 ns/day, 0.707 hours/ns, 392.873 timesteps/s
82.7% CPU use with 16 MPI tasks x 1 OpenMP threads

MPI task timing breakdown:
Section |  min time  |  avg time  |  max time  |%varavg| %total
---------------------------------------------------------------
Pair    | 14.682     | 17.791     | 20.141     |  34.5 | 69.89
Neigh   | 0.0021726  | 0.002425   | 0.0025601  |   0.2 |  0.01
Comm    | 5.2102     | 7.5654     | 10.675     |  52.9 | 29.72
Output  | 0.0001738  | 0.00017716 | 0.00022458 |   0.0 |  0.00
Modify  | 0.058536   | 0.062894   | 0.067145   |   1.1 |  0.25
Other   |            | 0.03193    |            |       |  0.13

Nlocal:    6.25 ave 10 max 4 min
Histogram: 1 3 0 7 0 3 1 0 0 1
Nghost:    557.562 ave 570 max 540 min
Histogram: 1 0 1 1 2 2 2 4 2 1
Neighs:    0 ave 0 max 0 min
Histogram: 16 0 0 0 0 0 0 0 0 0
FullNghs:  854.875 ave 1364 max 551 min
Histogram: 1 3 0 7 2 1 1 0 0 1

Total # of neighbors = 13678
Ave neighs/atom = 136.78
Neighbor list builds = 54
Dangerous builds = 0

next        iterations
jump        md_test.in start_loop
variable    t equal ${start_temp}-(${iterations}-1)*${dT}
variable    t equal 2000-(${iterations}-1)*${dT}
variable    t equal 2000-(4-1)*${dT}
variable    t equal 2000-(4-1)*500

fix         hold all nvt temp ${t} ${t} 0.1
fix         hold all nvt temp 500 ${t} 0.1
fix         hold all nvt temp 500 500 0.1
run         10000
Per MPI rank memory allocation (min/avg/max) = 3.969 | 3.969 | 3.969 Mbytes
Step Temp E_pair E_mol TotEng Press 
   40000    1071.8343   -417.65568            0   -403.93968    666638.01 
   50000    567.45446   -425.83397            0   -418.57239    615000.11 
Loop time of 24.8208 on 16 procs for 10000 steps with 100 atoms

Performance: 34.809 ns/day, 0.689 hours/ns, 402.887 timesteps/s
84.2% CPU use with 16 MPI tasks x 1 OpenMP threads

MPI task timing breakdown:
Section |  min time  |  avg time  |  max time  |%varavg| %total
---------------------------------------------------------------
Pair    | 14.166     | 17.976     | 21.688     |  51.1 | 72.42
Neigh   | 0.00026012 | 0.00031911 | 0.00037278 |   0.0 |  0.00
Comm    | 3.0308     | 6.7465     | 10.559     |  83.4 | 27.18
Output  | 0.00015358 | 0.00015823 | 0.00022315 |   0.0 |  0.00
Modify  | 0.060298   | 0.065818   | 0.072799   |   1.3 |  0.27
Other   |            | 0.03236    |            |       |  0.13

Nlocal:    6.25 ave 8 max 5 min
Histogram: 3 0 0 7 0 0 5 0 0 1
Nghost:    560.438 ave 569 max 550 min
Histogram: 1 3 0 2 1 1 1 3 1 3
Neighs:    0 ave 0 max 0 min
Histogram: 16 0 0 0 0 0 0 0 0 0
FullNghs:  854 ave 1087 max 682 min
Histogram: 3 0 0 7 0 0 4 1 0 1

Total # of neighbors = 13664
Ave neighs/atom = 136.64
Neighbor list builds = 7
Dangerous builds = 0

next        iterations
jump        md_test.in start_loop
Total wall time: 0:02:05
