BEGIN_CFG
 Size
    100
 Supercell
        10.211495      0.000000      0.000000
         0.000000     10.211495      0.000000
         0.000000      0.000000     10.211495
 AtomData:  id type       cartes_x      cartes_y      cartes_z           fx          fy          fz
             1    0      -0.088063      1.519519      7.863312    -0.032215   -0.055784    0.756683
             2    0       4.041948      5.410569      4.809884    -0.449831    0.063866   -0.789615
             3    0       5.712247      9.382669      2.767787    -0.638998    1.753306   -0.212940
             4    0       6.887695      6.919588      8.921481    -0.034827   -0.036793    0.734651
             5    0       5.225355      8.157232      7.624283     0.975632    0.185098    1.650780
             6    0       0.250662      6.648396      4.210282     0.017113    0.772528   -0.923124
             7    0       8.410655      4.818581      9.214239    -1.124812    0.051792   -0.258616
             8    0       6.213141      5.472912      3.981015     0.316286   -0.041786   -1.378665
             9    0       3.927731      1.840284      3.169639     0.205500   -1.081397    0.728321
            10    0      10.023486      0.790183      3.615591     0.681966   -0.504572   -1.128540
            11    0       1.422777      4.237256      0.388641    -1.053209    0.811921    0.178561
            12    0       7.938952      4.274535      5.174534     0.134950   -0.220818    0.480674
            13    0       0.984882      1.207113      0.070609    -0.741972   -0.413015    0.898942
            14    0       9.125692      4.105746      1.184658     0.024456    1.142434    1.363377
            15    0       7.704416      6.174233      0.865049    -0.009771   -0.000748    0.171889
            16    0       2.400305      9.549867      0.590173    -0.107014   -0.822417   -0.395848
            17    0       0.581766      2.807202      2.334011     0.786100    0.291709   -0.158936
            18    0       9.404558      7.382243      2.146337     1.019847   -0.050043   -0.073605
            19    0       1.104184      3.379465      6.605327    -0.326168    1.450704   -0.163448
            20    0       4.332730      0.556773      1.340479    -0.023592   -0.398757   -0.099645
            21    0       4.943332      2.139399      6.935379    -0.510477    0.262064   -0.854847
            22    0       0.711579      0.393408      6.090787     0.353638   -1.158634   -0.616975
            23    0       6.843609      4.107492      1.968358    -0.817069    0.689061   -0.489627
            24    0       9.001149      0.488297      9.912801    -0.321817   -0.666805   -0.694877
            25    0       3.118827      1.191347      9.500922     1.408206    0.059453    0.173223
            26    0       3.402232      4.285716      6.982683    -1.620237   -0.419338   -1.341016
            27    0       0.061778      9.567158      1.709171     1.111835    0.433324   -1.133622
            28    0       3.160699      6.118989      2.587096     0.284790   -0.499339   -0.353413
            29    0       2.516431      1.691002      7.061901     0.507462    0.183227   -0.021497
            30    0       5.358159      1.428813      8.988385     1.082959   -0.869712    0.154079
            31    0       9.826081      2.938832      9.692031     0.038501   -0.694035   -1.152755
            32    0       6.624608      3.589105      8.093224     0.516232   -0.853092   -0.186657
            33    0       4.620076      6.866981      9.739905    -0.358825    0.186124    0.148568
            34    0       2.571251      7.291618      4.410943     0.181314    0.891435    0.445220
            35    0       5.995070      4.865270      9.974426     0.175763   -0.660466    0.619610
            36    0       8.616530      8.350949      0.103612     0.728229   -0.569489    0.221125
            37    0       8.367732      3.046558      3.266407     0.906746   -0.594411    1.217652
            38    0       3.297281      9.499776      3.311104     1.129695   -0.940212   -0.365799
            39    0       0.812695      5.390737      2.228557    -0.563586    0.801982    0.415078
            40    0       8.946495      3.428719      7.165804    -0.623481    0.178371    0.736214
            41    0       5.662074      4.321998      6.084929     1.192353   -0.544140   -0.379691
            42    0       1.903706      2.951060      8.847058    -0.287677    0.706065   -0.735582
            43    0       7.662414      8.112175      6.935747    -0.683444   -0.307754   -0.935145
            44    0       0.328798      4.810981      8.363058     0.701294   -0.086651    0.032351
            45    0       6.580098      0.340948      0.522450     0.342348    0.671760   -0.997310
            46    0       7.483323      2.777380     -0.030321     0.474908   -0.622302   -0.441860
            47    0       0.670038      8.318808      9.649261     0.196018   -0.244073    0.396050
            48    0       4.315699      8.671474      5.628333     0.155341    1.276285   -0.992659
            49    0       1.628163      7.947152      2.259666    -0.594103    0.185623    1.073694
            50    0       9.094129      8.838971      4.128813    -1.110298   -0.049384   -0.448653
            51    0       2.850084      2.721708      1.282181     0.220367   -0.334730   -0.489361
            52    0       3.661654      4.873966      0.670959     0.872425   -0.467046   -0.284046
            53    0       8.063547      9.576667      2.053012    -0.868653    0.984646    0.734155
            54    0       7.153678      9.295913      8.818119    -0.875175    0.881370    0.119940
            55    0       5.917314      6.739012      5.941890    -0.633080   -0.053268   -0.327812
            56    0       8.076502      6.720913      5.023950     0.051365    0.927275   -0.632157
            57    0       8.527624     -0.038783      6.201812     0.101990    0.483169   -0.483954
            58    0       7.711768      0.736377      4.211511     0.856841   -0.661861   -0.894803
            59    0       3.097151      0.547173      5.176053    -0.004670   -0.204289    0.124837
            60    0       6.578865      8.861571      4.938873     0.939365    0.202749    0.021926
            61    0       5.108794      5.539659      7.926948     1.057536    0.454524    0.400144
            62    0       6.157767      0.095742      6.962786    -0.050813   -0.561538   -0.469663
            63    0       1.506827      2.231067      4.629500     1.190761   -0.650556   -0.638696
            64    0       2.185717      8.637978      6.399065    -1.627308    0.471872    0.194824
            65    0       7.210524      2.099181      6.023348    -0.097823    0.503267    0.584773
            66    0      10.313060      4.189826      4.310288    -0.148063    0.107637   -0.077499
            67    0       1.918311      0.809529      2.322685    -0.921681    0.565798    0.553780
            68    0       6.315616      8.267452      0.708294    -0.052986   -1.013258   -0.096638
            69    0       7.616268      5.596920      7.151076    -0.273288   -0.243537    0.013649
            70    0       9.761951      5.552359      6.175204     0.279915   -0.109646    1.062665
            71    0       3.881662     -0.084771      7.515010     0.238532    0.039523    0.049933
            72    0       6.163984      2.957939      4.177660    -0.811890    0.695397   -0.114459
            73    0       1.622841     -0.261064      8.379443    -1.024158    0.899113   -0.799015
            74    0       5.344317      2.596432      0.740568    -1.241280    1.261893    0.370772
            75    0       8.561104      5.429741      3.120752    -0.135497    0.116465   -0.300055
            76    0       9.513069      2.148654      5.323807    -0.937317    0.405990    0.545160
            77    0       4.873836      7.497014      3.777920    -0.114936   -0.959919   -0.637058
            78    0       1.825007      5.508118      5.540787    -0.118583   -1.386812    0.738213
            79    0       9.235567      7.075408      8.316354     0.211787   -1.491695   -0.123595
            80    0       5.461586      6.171069      1.677071     0.148521   -0.358445    1.084006
            81    0       5.421823      0.723976      4.744253    -0.741947   -0.087172   -0.024788
            82    0       1.244297      6.760358      7.567789    -0.065905    0.680024   -0.430576
            83    0       2.662943      5.427594      8.852269    -0.142468    0.359809   -0.217676
            84    0       3.558314      6.730854      6.811110    -0.924566   -0.410671   -0.698419
            85    0       7.722733      1.373227      8.144016     0.351335    0.417032    0.864205
            86    0       9.473345      9.308711      8.035244     1.050015    1.110328    0.905056
            87    0       2.176950      6.816352      0.441071     0.138296   -0.451324   -0.851876
            88    0       4.653617      9.364598      9.646011     0.282684    0.161349   -0.137798
            89    0       7.156843      7.594719      2.865074     0.122218   -1.399685    0.940948
            90    0       2.327386      4.057396      3.458010     0.408876    0.265356    0.427692
            91    0       8.962781      1.670490      1.581160    -0.465307   -0.778294    0.203174
            92    0      10.009231      6.166079      0.101242     0.842425    0.048413    0.777166
            93    0       2.956808      8.110922      8.646040    -0.508381   -0.601269    0.645869
            94    0       6.584729      1.576198      2.422947    -0.149700   -0.316916   -0.100608
            95    0       1.194590      9.138602      4.305006    -0.450416    0.635398   -0.132988
            96    0      -0.254834      8.071789      6.100626     0.800109   -0.179671    0.368681
            97    0       4.044055      8.094245      1.453320    -0.302477    0.399743    0.534523
            98    0       4.555875      3.944835      2.645046     0.607717    1.246094    0.187221
            99    0       4.236240      3.504544      8.878367     0.207393   -0.816512    1.796711
           100    0       3.899554      3.048834      5.093306    -0.908159   -0.428286   -0.158253
 Energy
       -429.290710199081
 PlusStress:  xx          yy          zz          yz          xz          xy
       366.53063   372.75294   393.25012     2.44445     4.48593   -20.40292
 Feature   MV_grade	0.999997
END_CFG

BEGIN_CFG
 Size
    100
 Supercell
        10.211495      0.000000      0.000000
         0.000000     10.211495      0.000000
         0.000000      0.000000     10.211495
 AtomData:  id type       cartes_x      cartes_y      cartes_z           fx          fy          fz
             1    0      10.055192      2.195973      8.577279    -0.641720    1.042703    1.444003
             2    0       4.285982      4.931654      4.284051     1.189531    0.359128   -0.553171
             3    0       5.276213      9.859488      3.396130    -1.892668    0.246742   -2.111700
             4    0       6.595734      7.557420      9.937828     1.972510    0.486721   -0.896487
             5    0       5.656413      7.983620      7.324354    -0.467034    0.968154    0.605707
             6    0       0.433330      7.292670      5.064386     0.331768    0.145846   -1.031711
             7    0       8.493137      4.617492      8.492229    -0.546078   -1.565468    0.617649
             8    0       6.790337      5.087594      3.800438    -1.413494   -1.129298   -0.379398
             9    0       3.788999      1.785964      3.400313    -0.685086   -1.583914   -1.063814
            10    0       9.848732      0.159884      2.692124     1.179188    1.084447   -0.097402
            11    0       1.433354      4.551388      1.052827    -0.082203    0.722557   -0.058252
            12    0       7.623340      4.904497      6.427422    -0.422191    1.261879   -1.874414
            13    0       1.181613      0.889613      9.950838     0.597652    0.589000    0.303550
            14    0       9.118800      4.890327      2.174509    -3.485313    0.351711   -2.589186
            15    0       7.895711      5.710882      0.249763    -0.017153    0.965843    1.456994
            16    0       2.786214      9.058502     10.145472    -0.976136    0.469729    0.213366
            17    0       0.655985      2.391111      1.663666    -0.610513   -1.347092   -0.299107
            18    0       9.537104      7.007747      1.840792    -1.441086    2.063345   -1.396138
            19    0       1.092535      3.028835      5.804932    -1.868119   -0.117401   -1.701196
            20    0       4.299937      0.554669      0.962521     1.583425   -0.747479    2.422897
            21    0       4.171665      2.118023      7.060699     1.696490   -0.522444    0.949477
            22    0       0.065491      0.939515      6.773562    -0.404167    0.246444   -2.234144
            23    0       7.153257      3.641210      1.320959    -0.167664    0.590710    1.331659
            24    0       9.124684      1.046656      0.686318     0.617526   -0.277930   -0.209355
            25    0       3.535179      0.949321      9.127517    -0.653066    1.114154   -1.554713
            26    0       2.806435      4.468907      7.152954    -0.614532    0.359787   -0.947897
            27    0       0.395842      9.038656      0.775431     0.304330    1.009282   -0.976891
            28    0       3.283771      5.881093      2.313405    -0.322925   -0.643634    0.014730
            29    0       1.970242      2.229468      7.574565     0.213395   -1.138641    1.470657
            30    0       6.018962      1.176368      8.574058    -1.055660   -0.789665   -0.500382
            31    0       9.586144      3.674483      0.211085     0.265709   -0.439005    0.155172
            32    0       6.590900      3.121589      7.529686    -0.087392    0.077069   -0.047604
            33    0       4.423309      7.349281      0.041523    -1.167783    0.630039    0.741397
            34    0       2.932659      6.956009      4.291166    -1.464599    2.173029   -0.896783
            35    0       6.204084      4.634019      9.483353     0.223384   -1.931062    1.165841
            36    0       9.000653      7.906573      9.748783    -1.671421   -0.743436    0.965438
            37    0       8.344800      3.626518      4.458150    -0.565362    0.957186   -0.493706
            38    0       2.867355      9.607557      3.838397     0.477996   -0.666077   -0.883646
            39    0       0.978864      5.960100      2.939964     0.708342   -0.002077    0.909309
            40    0       8.774479      2.892248      6.518529     1.330684    0.012852    2.232992
            41    0       5.048607      4.749531      6.654699     0.402261   -0.110601   -0.266953
            42    0       2.310336      3.549267      9.399155    -0.300527   -0.728745    0.539376
            43    0       7.901033      8.672141      7.833034    -0.386029   -0.243015   -0.456618
            44    0       0.569623      4.364476      8.357440    -1.052581    0.449422   -1.591418
            45    0       6.734869      1.030404      1.484059    -0.550688   -1.036782   -1.084802
            46    0       7.834714      2.424064      9.647489    -0.813948    0.721195   -0.595275
            47    0       0.926397      7.924012      8.741170     0.765414   -0.845619    0.797433
            48    0       4.530842      8.432949      5.183658     0.391766    1.045044   -0.368950
            49    0       1.058494      8.281486      2.725783     1.359250    0.520142    2.398329
            50    0       8.967104      8.546214      3.728951    -0.094121   -1.047334    0.022974
            51    0       2.853493      2.500422      0.976695     0.604989   -1.690062    0.429343
            52    0       3.957372      5.159614      0.346032    -1.048412   -0.860711   -1.122750
            53    0       8.173505      9.143443      1.586176     0.604717   -0.374637    0.378672
            54    0       7.545568      9.842211      9.749351    -1.710461    0.720502    0.646378
            55    0       6.038325      6.504978      5.573823    -0.019491   -0.785481   -0.232401
            56    0       8.131033      7.409796      5.979549     0.638024   -0.448389   -1.010779
            57    0       8.547830      9.832614      5.610863    -0.389008   -0.618635    1.193182
            58    0       7.424250      0.270512      3.661414     1.004921    0.369818   -1.369027
            59    0       2.566156      0.733980      5.689330    -0.244258    1.711090   -0.187719
            60    0       6.678809      8.481384      4.543776     0.903605    0.048322   -0.018255
            61    0       4.534121      6.032670      8.512331    -0.903246    0.804086   -1.279275
            62    0       6.373092     -0.119257      6.564605     0.415548   -2.787314    2.271628
            63    0       1.410696      1.813953      3.832698    -0.438580   -1.278647    0.117007
            64    0       2.422102      8.695558      6.056883    -2.001332   -1.425113   -1.211235
            65    0       7.169582      1.546210      5.526268     1.401522    1.680997   -0.182685
            66    0       0.167980      3.840218      3.372017     2.469187   -2.397140    3.824504
            67    0       2.130793      0.307810      1.824982    -0.551309   -0.014696    0.572812
            68    0       6.025295      8.473769      1.617047    -2.534731    2.317553    0.613687
            69    0       6.750214      6.258782      8.169776     2.114733    0.526609   -2.026704
            70    0      10.135227      4.913726      6.082235    -1.633184    0.449471   -0.386898
            71    0       4.090352      9.769427      7.164336     1.427569    2.430580    0.278872
            72    0       5.768023      3.162646      5.198596    -0.529971    2.102423    0.919101
            73    0       1.747151     10.124210      7.782554     1.132501   -0.808565    1.810820
            74    0       5.407361      2.506113      0.095749    -0.029513   -0.642865    0.450663
            75    0       8.877311      6.186472      4.077722     0.679785   -0.909081    1.555372
            76    0       9.379919      1.575593      4.693772     1.610902   -0.221816   -0.545197
            77    0       5.081210      6.957161      3.324110    -0.005572    0.456729    0.730452
            78    0       1.890589      5.094107      4.882863    -0.259363   -1.260780    0.419268
            79    0       9.325696      6.580697      7.680655     0.767867    0.392427    0.514700
            80    0       5.864503      5.771149      1.483951    -0.313091   -1.133995   -0.327771
            81    0       4.963060      0.905229      5.261433    -1.720557    0.223806   -0.519042
            82    0       1.509228      6.453561      6.862164    -0.803782    0.312310    1.024712
            83    0       2.160329      5.851250      9.057335     0.314800    1.380882    0.404943
            84    0       3.695011      6.659557      6.374607     1.053570   -1.426623    0.340160
            85    0       8.184624      0.942747      7.925708    -0.527273    0.208675   -2.007143
            86    0       9.746259      9.852986      8.897014     0.976497    0.809786    0.094850
            87    0       1.717386      6.984811      0.834328     0.268556    0.239216   -0.547539
            88    0       5.180824      9.410020      9.405110     0.219011   -0.092975   -0.261087
            89    0       7.264024      7.034858      2.686949     2.358214    0.670736    0.060604
            90    0       2.521693      3.727245      2.935990    -0.029858    0.636610    0.611574
            91    0       8.491696      2.195613      2.649332    -0.011896    0.688688   -0.528005
            92    0      10.035412      5.936314      9.996897     2.060904   -0.309847   -0.558780
            93    0       3.162566      8.055216      8.122407     0.099325   -1.826916    1.803273
            94    0       5.963122      2.287891      3.261199     1.449756    0.163591   -1.831011
            95    0       0.639787      9.723280      4.744041     0.229579    0.397045   -0.449547
            96    0       0.033650      8.837154      6.827526    -0.457493   -1.418471   -0.153351
            97    0       3.565051      8.178472      1.983641    -0.195449    1.533017    0.945619
            98    0       4.596573      3.668921      1.882312     1.476614    0.278111    1.839770
            99    0       4.363051      3.733679      8.679006     0.578061   -1.606118   -0.432360
           100    0       3.312090      3.156809      5.237075    -0.192292   -0.221647   -0.261242
 Energy
       -420.678284673542
 PlusStress:  xx          yy          zz          yz          xz          xy
       406.10829   412.82072   424.58702   -15.53147    14.05444   -11.81963
 Feature   MV_grade	1.000012
END_CFG

BEGIN_CFG
 Size
    100
 Supercell
        10.211495      0.000000      0.000000
         0.000000     10.211495      0.000000
         0.000000      0.000000     10.211495
 AtomData:  id type       cartes_x      cartes_y      cartes_z           fx          fy          fz
             1    0      10.016854      2.070892      8.534847    -0.892156    1.647651    1.511422
             2    0       4.205861      4.725892      3.565330     1.323802    0.477512   -0.372682
             3    0       5.448075     10.217013      3.596893     1.585706   -0.198419   -0.119065
             4    0       6.738021      7.477832     10.162054    -0.438085    1.567483   -0.162946
             5    0       5.766266      7.517669      7.012534    -1.104337    1.547444    0.154224
             6    0      -0.060117      7.840550      5.508993     0.779385   -1.430997    1.016423
             7    0       8.408992      4.102451      8.350872     0.758438    1.104725    1.496266
             8    0       6.601642      4.884761      3.314476     0.501388   -0.888143   -0.636327
             9    0       3.926630      1.571579      3.131738    -2.409481    0.193067   -1.730032
            10    0      10.320325      0.454092      2.895995    -2.112359   -2.417542   -0.343370
            11    0       0.909159      5.088586      1.834196    -0.179569   -0.033209   -0.907409
            12    0       7.976469      5.344907      6.361575    -1.073519    0.191082   -0.072976
            13    0       0.853069      1.054237      0.028256    -0.092321    0.775448    2.041569
            14    0       8.913422      4.493505      2.262734    -0.099681    2.642728    0.278747
            15    0       8.044634      5.437084      0.306014    -0.214690    0.316066   -0.646874
            16    0       2.820069      9.193214      0.086856    -2.965746   -0.276222   -0.803381
            17    0       0.451761      2.577178      2.023269     0.033550    0.056375   -1.773482
            18    0       9.713830      7.159160      1.684984     0.712834   -1.628424   -0.148521
            19    0       1.406715      3.131519      5.867528    -0.582387    0.125329    0.480469
            20    0       4.572887      0.093623      0.776008     0.000124    1.491505    0.715468
            21    0       4.358113      2.523541      7.488460     0.980491    1.332071   -0.693987
            22    0       0.286725      1.117911      6.557168     0.063526   -0.466971   -0.234435
            23    0       7.006322      3.483575      1.146360    -0.814136    0.716683   -1.027459
            24    0       8.907676      1.248841      1.133417    -0.526051   -0.639090   -0.476614
            25    0       3.745847      0.602653      8.433453    -2.204912   -0.584608    1.510925
            26    0       3.176739      4.470217      7.092826     0.674615   -0.838518   -0.888826
            27    0       0.304589      8.999294      0.598951     1.184178    0.572011    0.206180
            28    0       2.769259      6.389530      2.690670     0.361465    1.079234    1.923688
            29    0       2.040055      2.312008      8.039365     0.798171    0.326865    0.602381
            30    0       5.940291      0.709511      7.825778     0.772618    0.749531   -1.858190
            31    0       9.369624      3.466968      0.186825     0.219408   -1.023001   -0.421501
            32    0       6.862777      2.884772      7.068348     0.229118   -1.268079    1.531910
            33    0       4.105040      7.400517      0.875768    -0.039507   -0.217825   -0.182296
            34    0       2.409996      7.857776      4.841201    -0.161294   -1.827365   -1.676388
            35    0       6.248973      4.004622      9.127136     0.279146    1.546473   -0.305032
            36    0       9.029069      7.534639      9.665185    -0.087645    1.222141   -0.235461
            37    0       8.025955      3.683339      4.849981    -0.408452    1.666331   -1.828440
            38    0       3.224718      9.927977      4.404238    -0.379629    1.745018    0.142576
            39    0       0.608089      6.329298      3.760633    -0.102576    0.856366   -0.115965
            40    0       9.259293      3.145941      6.568020     1.198133   -0.791905    0.393782
            41    0       5.576160      5.311829      7.244366    -0.793553   -0.589714    1.034902
            42    0       1.563151      3.566164     10.018855    -0.524531   -0.432805    0.818680
            43    0       7.605878      8.968581      7.963393    -0.708323   -1.018396    0.861276
            44    0       0.819636      4.442318      7.806121    -1.396411   -0.523761   -0.036352
            45    0       6.396086      1.232806      1.656018     0.663812   -0.812438   -0.886749
            46    0       7.505182      1.977089      9.444061     1.317979   -0.281918    0.139547
            47    0       1.358056      7.659658      8.760629    -0.732157    0.349653   -0.165857
            48    0       4.666297      8.236629      4.711482     0.693205   -0.696979    0.292113
            49    0       1.549302      8.525258      2.828229    -2.024681   -0.602949   -0.459952
            50    0       9.341066      8.419460      3.528173     0.526955    1.092771   -0.733930
            51    0       3.056534      1.871808      0.404204     0.077569    0.564268    0.277713
            52    0       3.209438      5.093427      0.928434    -0.336234    0.334410    0.605443
            53    0       8.259927      9.068532      1.441401     0.257729    0.653995   -0.957253
            54    0       6.530066      9.930532      9.665653     0.770176   -0.563500    2.795432
            55    0       6.136656      6.501679      4.838589     1.551180   -1.125199    2.521400
            56    0       7.931012      7.740621      6.158802     0.918189   -1.496777   -1.070674
            57    0       8.597456      9.890178      5.296541     1.757594   -0.206834    2.068531
            58    0       7.945460     10.415297      3.325555    -0.475036    1.593735   -2.309568
            59    0       2.530864      1.093319      6.092120     1.383951   -0.638207    0.851357
            60    0       7.014822      8.480247      3.974010    -0.437595   -1.355595   -0.745039
            61    0       4.761400      6.255246      9.338348    -0.284657    0.225781   -3.549827
            62    0       6.447541      9.508673      5.944374    -1.139542    1.417376    0.422858
            63    0       1.576581      1.723464      3.984909     1.684305    0.606278   -0.037478
            64    0       2.123372      8.702482      6.855445    -2.345749    1.983554    0.359607
            65    0       7.207989      1.620267      5.143917    -1.102596   -1.525052    0.360970
            66    0       0.148107      3.798095      3.891596     0.025656    0.476867    0.658730
            67    0       2.063810      0.357359      1.949385     2.255359    0.406795   -0.686633
            68    0       5.990039      8.826133      1.693995     0.402885   -0.433216    0.787261
            69    0       7.314711      6.396219      8.304596     0.244648   -0.514623    0.316160
            70    0      10.182196      5.175788      5.754445    -0.205021    0.651925   -0.186672
            71    0       4.188524      9.379688      6.705266     1.094061    0.038293    0.154220
            72    0       5.646364      3.889977      5.579564    -0.689082    0.236129   -2.696609
            73    0       1.338488     -0.002633      8.411530     1.466569   -1.052924   -0.109822
            74    0       5.265632      2.054477      9.793437    -0.880230   -0.676066    0.663292
            75    0       8.525494      6.261596      4.182514    -0.202671   -0.811187    0.406394
            76    0       9.513289      1.744577      4.612566    -0.201308    0.172484   -0.074190
            77    0       5.222904      6.791349      2.865003    -1.151766    0.467414   -1.277772
            78    0       2.156686      4.893218      4.660176    -0.131281    0.508026   -0.371692
            79    0       9.574742      6.561979      7.662741     1.435047    0.162523   -0.567096
            80    0       5.752990      5.611039      0.865781     0.648433   -2.345477    3.006234
            81    0       4.952500      1.148882      5.605009    -0.026946    0.635550   -0.190557
            82    0       1.787160      6.417982      6.451830    -2.328825   -1.054921    0.298406
            83    0       2.440572      5.477385      8.941565    -0.851964    3.070691    0.834547
            84    0       3.976494      6.037161      5.498974     0.266572    0.603096    0.154597
            85    0       8.357056      0.902041      7.415202    -1.646921    0.850706   -1.201301
            86    0       9.025293     -0.091762      9.399528    -0.047173   -0.122649    1.013116
            87    0       1.750327      7.091660      0.722511    -0.040799   -0.122997   -0.103725