BEGIN_CFG
 Size
    100
 Supercell
        10.211495      0.000000      0.000000
         0.000000     10.211495      0.000000
         0.000000      0.000000     10.211495
 AtomData:  id type       cartes_x      cartes_y      cartes_z           fx          fy          fz
             1    0       1.164630      0.812390      9.479190    -0.385376   -1.743737    1.356144
             2    0       4.332980      4.432830      1.688620    -1.546828   -0.250319   -2.263717
             3    0       3.333300      3.090960      9.804220    -0.293129    0.162125    1.984326
             4    0       9.073500      3.710210      1.175140     0.447040   -0.116883    1.469406
             5    0       5.035230     10.033970      7.292190    -0.404877   -3.048494    2.734145
             6    0       6.332690      0.298300      2.414280     0.333202    1.554023   -0.337651
             7    0       8.231830      4.406630      6.916920    -0.020188    0.586411   -2.026016
             8    0       2.615590      4.177940      4.634450    -3.604772    2.915055   -0.373990
             9    0       3.517640      9.576360      2.612950     1.935428   -0.155839    0.412042
            10    0       7.490040      0.112550      7.621890    -0.244133   -1.960167    0.495369
            11    0       8.408900      0.460510      5.562570     2.189400    1.414478   -1.009424
            12    0       1.879040      2.248490      8.145060    -0.023792    4.790216   -0.863107
            13    0       9.472120      1.279980      8.239760    -0.136865   -0.301244   -0.137943
            14    0       6.308800      4.083190      2.593860     0.506319   -2.193943    0.531550
            15    0       0.712320      4.784160      3.218730     0.080642    0.375619   -0.445206
            16    0       2.760240      9.412360      0.434810    -0.438044   -0.812591    0.644119
            17    0      10.158930      2.589390      3.126210    -0.391467    1.702942    2.093675
            18    0       4.743660      5.535830      3.605360     0.141228    0.549305    1.447397
            19    0       2.269170      7.282790      0.083910     1.333944   -0.414650   -0.807559
            20    0       6.955650      8.347000      1.530570    -0.095566   -0.927670    0.168402
            21    0       8.473270      7.642220      7.686940     0.977049   -0.379056   -0.401840
            22    0       4.455920      9.734170      5.250790    -1.725792   -3.028557    0.261504
            23    0       8.972470      9.388770      9.205750     0.323883    0.462281   -1.700911
            24    0       4.235820      7.503690      1.740230     0.596036    2.108392   -2.286649
            25    0       7.921400      1.974840      2.608770     0.589811   -0.221184    1.678592
            26    0       9.689870      5.500050      9.949640    -0.033233   -0.978308    0.158527
            27    0       9.559930      0.458670      3.465620     0.656526    0.117629    2.988329
            28    0       3.450750      2.187110      5.830240     0.947259    0.539579    1.405002
            29    0       4.370730      2.387000      8.048240    -1.365243   -1.022226    0.285807
            30    0       6.851430      8.742110      5.957450    -0.955062   -1.485857    0.199123
            31    0       4.012060      7.777830      7.164450     1.815981    0.911098   -0.273090
            32    0       2.752040      1.360060      0.975670    -0.933651    0.932808    0.021651
            33    0       3.298960      5.995840      6.018490    -1.310905    1.473359   -0.324786
            34    0       6.025770      3.661050      7.376910     1.485551    2.982653    0.322245
            35    0       2.470650      0.443710      4.781600    -0.688316   -1.078340    0.658905
            36    0       0.299240      9.442090      7.526090     0.316980   -2.885009    0.889682
            37    0       4.430240      1.118090      3.715820     1.266775    1.204632   -1.194328
            38    0       9.122700      8.597910      5.578670     2.890705   -0.377077    1.457984
            39    0       2.139930      3.779470      1.604240    -0.823542   -0.091467   -0.057815
            40    0       7.019730      9.806290      9.998470    -0.683939    1.191524   -1.186470
            41    0       0.057320      4.918650      5.460580    -0.951793   -0.517364   -1.082942
            42    0       1.633990      4.271010      6.925930     3.821686    0.472745   -1.457885
            43    0       2.367910      2.243330      3.288940     2.029424    0.149513   -3.567084
            44    0       0.558090      3.422880      9.821630    -2.538049   -3.342967   -1.442261
            45    0       4.526820      7.906300      9.384440    -0.312628    2.145732    1.225433
            46    0       5.598900      3.779500      9.779730    -1.317432    0.411309   -1.225248
            47    0       0.896090      6.229220      1.358930    -2.127833   -1.666831    0.494466
            48    0       6.610140      1.786270      8.781180    -0.504626   -0.029894    2.601442
            49    0       1.897540      7.962060      2.511440     1.392114    2.295672    0.228427
            50    0       5.991560      6.213990      1.824010    -0.695631   -0.207632   -0.139236
            51    0       2.131920      6.339680      7.925930    -0.158126    1.061358    0.624520
            52    0       7.105250      6.829750      3.544750    -0.826912   -3.058467   -0.037660
            53    0       2.397890      8.766770      8.447380    -0.477455   -0.114309   -0.088246
            54    0       8.832400      7.484410      0.099040    -1.583683    1.190036    0.570252
            55    0       6.429780      0.260660      4.661460     0.133908    2.022581   -1.273744
            56    0       9.188240      2.915800      5.212620    -1.042719   -0.484707   -1.121625
            57    0       3.560570      4.544890      7.994270     0.612549   -0.570956    0.382291
            58    0      10.066420      8.172730      2.223590    -3.304311   -0.596958    1.491580
            59    0       2.235660      8.351680      5.990070     0.553778    1.815519    0.484966
            60    0       8.621860      9.862010      1.776190    -1.098058   -0.670901   -1.485575
            61    0       6.550300      6.836000     10.036920    -1.237762    2.397231   -1.616779
            62    0       6.341680      8.255520      8.083830    -0.318245   -0.202762    0.974925
            63    0       9.455070      6.605660      4.059520     1.316126    0.620494   -0.900797
            64    0       0.448220      9.221260      0.398750     0.881193    0.104951    0.845081
            65    0       3.703670      7.570650      4.024140    -0.805887    1.145033    1.621231
            66    0       1.266800      2.454070      5.006760    -2.401291    1.524312    3.195887
            67    0       1.520500      0.260830      2.552260    -2.078666   -0.560114   -0.855430
            68    0       8.367640      4.330560      3.285020     1.650444    0.511501    1.923545
            69    0       6.647740      4.705170      5.099850     0.303736    1.570293    0.130191
            70    0       0.415570      7.004300      6.221220    -1.290298    1.980529    1.990976
            71    0       8.853130      1.214600      0.216180    -2.136474    0.385833   -1.190247
            72    0      10.136730      5.501280      7.764180    -1.007019   -0.280411    0.676415
            73    0      10.185780      3.146310      7.314330    -2.852883   -1.520168    0.830562
            74    0       0.378290      1.904010      1.218130     2.910807   -1.213327   -0.855981
            75    0       1.901460      4.898550      9.797880     2.825639    4.210983   -0.344843
            76    0       1.703460      6.613290      4.572210    -0.143647   -1.162105   -2.944675
            77    0       3.971350      0.440930      9.227540     1.393658    0.783972    0.647898
            78    0       5.351410      5.906960      7.732880     1.527367    0.768790   -0.043212
            79    0       7.886380      6.567880      5.614930    -0.540174   -1.201493    2.748744
            80    0       7.639190      5.651340      8.563020    -0.053295    0.150207   -0.092660
            81    0       8.727810      6.222910      1.911280    -0.026021   -0.939472    0.480951
            82    0       7.939300      8.718460      3.768280     1.521966    3.171073   -1.353108
            83    0       7.797080      2.190810      6.856440     1.660475    1.473616    0.261008
            84    0       5.720530      1.620200      6.552620     0.077100    0.881927   -4.440735
            85    0       4.722820      2.123680      1.466520     0.251587   -0.390788    1.152442
            86    0       6.788600      2.329070      0.824440     0.894821   -0.210558   -1.226806
            87    0       5.085870      9.816720      0.727960    -1.550325   -0.846883    0.539764
            88    0       0.942660      9.100530      4.323100    -2.162689   -0.684140   -0.071529
            89    0       0.571950      0.788890      6.189340    -0.655779    0.991387   -1.340562
            90    0       7.227680      4.890050      0.586040     1.278823   -1.537796   -0.234128
            91    0       2.736660      0.529400      7.427890     0.012979   -2.648988   -3.784849
            92    0       6.773480      2.624110      4.570680    -0.214923   -2.091054   -0.598755
            93    0       2.806260      6.043090      2.454950     0.003696   -4.201314    0.998859
            94    0       4.155200      5.841060      9.910810     0.369950   -1.781606    1.034823
            95    0       4.397130      3.318580      3.909260     2.946828   -2.349883   -3.197445
            96    0       0.399490      7.501670      8.896240     0.172773    0.391895   -0.315543
            97    0       8.449830      3.459870      9.251530    -0.649096   -1.150516   -1.811982
            98    0       5.597950      8.600030      3.467570    -0.254242   -0.346884    0.108125
            99    0       4.479680      4.314610      5.783240     2.931538   -1.186397    2.422439
           100    0       5.430560      6.844220      5.357130     1.113966    0.637644    1.480898
 Energy
       -407.386831791733
 PlusStress:  xx          yy          zz          yz          xz          xy
       474.06335   470.80537   460.42556    -8.92888    -6.50720    11.06848
 Feature   EFS_by	VASP
END_CFG

BEGIN_CFG
 Size
    100
 Supercell
        10.211495      0.000000      0.000000
         0.000000     10.211495      0.000000
         0.000000      0.000000     10.211495
 AtomData:  id type       cartes_x      cartes_y      cartes_z           fx          fy          fz
             1    0       0.605710      1.349520      0.046770    -0.807398    1.234430   -1.699287
             2    0       1.146290      7.636050      4.009610     0.147086    1.172912    0.136919
             3    0       2.972480      5.846790      9.301140    -1.010065    0.492547   -0.629690
             4    0       0.637010      3.028760      1.994020     0.987404   -1.749986    0.525968
             5    0       4.088790      0.460450      1.631700     3.475102   -3.521223    1.466379
             6    0       5.400190      0.962090      6.308140    -1.021480    1.519852   -3.100857
             7    0       6.108330      5.222480      3.299260     0.860800   -0.495577    1.090648
             8    0       1.121380      2.695330      7.896850    -3.521805   -1.312965    1.983922
             9    0       0.276080      0.635430      2.089550     2.260650   -0.766160    1.273806
            10    0       6.873080      7.259660      5.180690    -0.665810   -0.378686    0.759071
            11    0       8.479000      6.779480      6.946840    -2.166800   -3.058809   -2.961468
            12    0       4.774650      3.443710      6.374270    -0.129161   -0.372631   -0.915334
            13    0       7.652240      8.739160      6.603770    -1.385641    3.844191   -0.170987
            14    0       6.505190      9.795580      2.364730    -1.610299    0.616397    1.623171
            15    0       9.308050      6.996530      0.166870    -4.185381    1.431136    1.319539
            16    0       8.420370      1.003300      3.405940     0.018927   -0.019931    0.926888
            17    0       1.183470      0.898380      6.262070    -3.843182   -2.295247   -0.868615
            18    0       9.261250      3.103880      9.448610     2.601806    0.439029    1.994693
            19    0       1.775450      8.194200      9.515840     1.033389   -2.654683   -1.590783
            20    0       8.589160      3.030890      4.643480     1.311386    0.336592    0.491807
            21    0      10.149110      9.237870     10.069820    -2.784973    0.140730    0.612055
            22    0       4.870760      8.186480      5.885560    -0.742107   -0.521851   -1.298537
            23    0       0.273350      6.080960      5.716150     0.535686   -1.142305   -0.813270
            24    0       2.737720      1.915870      1.008930    -3.427151    3.623831   -1.711302
            25    0       5.276740      9.579280      7.607920     1.962588   -1.420073    3.252134
            26    0       5.982930      7.708220      3.254450    -0.748818    0.402897   -0.334932
            27    0       6.802540      8.319100      0.684250     2.014053   -5.206495    1.099286
            28    0       7.676640      8.843220      8.950030     1.250442    2.056466   -1.011672
            29    0       7.158210      0.857130      7.685310    -0.089356   -1.305153    0.273132
            30    0       4.309220      5.518670      7.244450    -0.459408    1.825473    1.023478
            31    0       8.405330      8.632850      3.674300    -1.393132    1.214296    1.326805
            32    0       4.093020      9.696340      9.557740     0.337322    0.210076   -0.352186
            33    0       2.346260      8.748510      2.084710    -0.736158   -1.546479    5.149770
            34    0       8.837930      1.936510      1.265000     1.147765    1.868236    1.555490
            35    0       3.959730      1.585790      4.612610     4.033552    0.306994   -2.431031
            36    0       6.072400      2.905380      8.341180     2.330275    2.370681    1.304085
            37    0       2.961780      4.557980      1.620450    -0.680332   -1.771237   -0.649687
            38    0       9.995940      7.326560      8.185620     3.785629    1.320621    2.402672
            39    0       1.290250      3.710080     10.091230     1.876558   -0.353316   -1.383154
            40    0       2.136230      9.907720      0.514380    -0.422411    4.620185   -2.518924
            41    0       4.400800      2.630170      2.300060     0.559001   -0.512087    0.487620
            42    0       3.444030      7.715340      7.958900    -0.221506    0.772329   -0.648480
            43    0       6.815450      0.009730      4.767270     2.786333    0.039006    0.973420
            44    0       2.759520      4.081880      7.902290    -0.341057   -1.127618    0.276592
            45    0       0.447330      6.256530      2.494760     0.546666    0.320031   -2.171261
            46    0       8.030070      4.332710      2.661700     1.485823   -1.648368    2.268243
            47    0       2.434990      6.768910      1.143560     2.324983    0.754247    2.486354
            48    0      10.127410      4.908310      8.079450     4.510278    1.467037    3.499251
            49    0       2.684740      7.019460      5.396450     1.939372   -1.355931    1.879115
            50    0       9.911300      4.687130      1.022040    -0.739467    0.675484    1.498227
            51    0       8.908010      4.517510      6.515370     0.011950   -2.577524   -2.901577
            52    0       2.776380      4.554530      5.761910    -0.459906    0.216558   -1.497390
            53    0       1.331200     10.160300      8.403480    -0.507643   -0.508597   -0.053408
            54    0       6.666270      1.794250      1.948500    -1.903944   -0.977505    2.431383
            55    0       6.898210      2.628480      6.249550     1.997811    1.044240   -0.495884
            56    0       0.301010      2.030210      4.086420     0.980744   -0.542825    0.888637
            57    0       7.123280      2.553470      0.080260    -0.757489   -0.222768   -3.917442
            58    0       8.780910      6.300760      4.188150     3.611963    1.701187   -0.749751
            59    0       2.479590      5.468590      3.733580    -0.118671    3.273336   -1.214365
            60    0       4.386420      7.314850     10.007610     1.232947   -0.777472   -2.275697
            61    0       7.400720      6.718770      8.852120     1.881716   -1.459698    3.187261
            62    0       5.649580      7.348270      7.817120     0.399999    0.367802   -0.325736
            63    0       2.843170      9.718550      5.062040    -3.314242    0.618710   -1.407961
            64    0       9.125240      0.671990      5.813040    -1.014070   -0.115937   -1.121748
            65    0       4.829150      9.788800      4.140140     1.130005    0.787135   -1.999395
            66    0       4.273540      1.920470      8.038450     0.492370   -0.928230   -2.457823
            67    0       4.849540      2.022860     10.189020     0.921048   -1.895216    0.619238
            68    0       2.280180      3.377500      3.625490    -0.521055   -1.676779    0.754612
            69    0       2.490140      1.226950      3.114990    -2.811770   -3.062600   -0.126777
            70    0       4.655460      8.406290      1.460020    -0.446274    2.563909    3.447988
            71    0       9.588750      9.706370      7.720050    -1.592368   -0.600002   -0.408269
            72    0       3.818470      3.953530      9.782890     1.534991   -1.684979    1.570479
            73    0       1.849550      6.181540      7.271120    -0.896509   -1.170337    2.029491
            74    0       8.995470      2.314470      7.457880     0.298729   -0.520341   -2.027933
            75    0       8.537010      9.901750      1.472390    -0.717838   -1.114007   -1.945440
            76    0       0.146940      4.546470      3.712050    -0.596108   -1.816403    1.810564
            77    0       2.549400      1.560590      8.985780    -0.311711   -0.160637    3.112136
            78    0       5.585330      5.475690      9.270600    -0.347460   -1.927895    1.113642
            79    0       7.468260      5.077060      5.139790    -4.101476   -2.194950   -1.260351
            80    0       7.882840      4.583580      0.553490    -1.746663    2.310680   -2.333987
            81    0       5.740220      3.984660      1.151810    -1.142082    0.728707   -0.101876
            82    0      10.031100      8.360390      2.178890     1.202251    0.566959   -1.629978
            83    0       0.780860      3.488930      5.990620    -1.520005    1.091355   -3.362941
            84    0       6.519660      2.568620      4.041600    -1.706952   -0.211071   -0.682204
            85    0       6.336080     10.155650      0.014810    -1.695854    5.759300   -2.229246
            86    0       8.006020      6.858000      2.285120     1.751442    0.470516   -2.275584
            87    0       8.583000      0.963610      9.361040     0.405519   -2.294481    0.700900
            88    0       1.546220      8.400860      6.748710    -2.094065    0.833371    0.308314
            89    0       2.799690      2.121890      6.170230     0.635984    3.197757    2.746709
            90    0       3.137420      9.926650      7.154810     1.381164    1.496784    1.619961
            91    0       6.418620      4.981930      7.013760    -0.387482    0.277728   -0.148374
            92    0       9.708930      8.241340      5.615530     0.063128    1.315439   -0.125434
            93    0       4.380900      6.121800      2.303130    -2.813781    1.085018    1.261901
            94    0       3.597580      8.059690      3.786670     1.006521   -2.028051   -2.680481
            95    0       0.931730      6.082880     10.153290     0.009778   -1.997715   -3.590709
            96    0       0.422350      9.806960      4.070980     0.642794    0.390346    1.458357
            97    0       7.947410      4.542000      8.488700    -1.549649   -0.217569    1.328896
            98    0       4.830940      5.744110      5.119190     0.490018    2.353802    0.013145
            99    0       6.250750      6.190120      1.285970     0.193526    0.293464   -3.999344
           100    0       4.523010      3.869100      4.042760    -0.191311   -0.599408    1.244409
 Energy
       -399.676133803510
 PlusStress:  xx          yy          zz          yz          xz          xy
       495.03629   465.83561   514.11214   -10.07725    18.52858    10.04072
 Feature   EFS_by	VASP
END_CFG

BEGIN_CFG
 Size
    100
 Supercell
        10.211495      0.000000      0.000000
         0.000000     10.211495      0.000000
         0.000000      0.000000     10.211495
 AtomData:  id type       cartes_x      cartes_y      cartes_z           fx          fy          fz
             1    0       1.016690      0.922770      0.445580    -3.922323   -0.065986    0.653940
             2    0       1.481010      7.724220      5.878500     0.239088   -0.989355   -0.600601
             3    0       6.071310      7.163360      8.916370     1.180291   -2.940237   -0.230888
             4    0       0.843010      4.880670      2.413600    -0.286074    1.635755    0.344229
             5    0       3.102130      2.373640      3.967700     2.386306    1.480558    1.563430
             6    0       4.552480      4.303070      3.735230     1.196227   -2.314111    0.509304
             7    0       7.080740      3.826510      3.841040    -0.813624    1.034148   -0.259476
             8    0       8.665460      3.190320     10.127670    -0.897099    2.426932   -0.173485
             9    0       8.501230      2.951880      2.130710     0.638787    1.179863    0.112610
            10    0       7.924030      5.862200      4.616920    -0.908459   -1.595650    0.433366
            11    0       8.236810      7.364950      3.121720     0.561708    3.147156    0.009644
            12    0       5.506310      2.282690      4.705150    -2.129302   -0.440253   -1.858429
            13    0       8.810230      0.084650      4.416620    -0.220729   -0.344447   -0.028394
            14    0       6.688070      0.055650      1.020610     0.884996    1.915602    0.862324
            15    0       7.905280      6.860650      0.953610    -0.677363    0.238018   -1.272034
            16    0       1.610720      9.092430      1.601190     0.305030    1.017863   -0.041089
            17    0       1.600770      9.418900      8.796920    -2.096013    2.040753    0.130925
            18    0       6.988050      0.652620      8.687640     1.660312   -0.597474   -0.542463
            19    0      10.033980      5.271120      0.462830    -1.827483    1.035502   -0.444639
            20    0       7.082270      1.482790      3.120450    -1.151178    0.027690   -0.671527
            21    0       0.208830      7.298870      1.806360    -1.052206   -0.104266   -0.519678
            22    0       7.056670      5.665850      6.964950    -1.974030   -0.010941    1.214678
            23    0       8.982170      8.262890      5.437320     1.389575    1.202356   -2.324981
            24    0       1.264920      4.753030      9.172150     0.737324    0.235746    0.284531
            25    0       5.984160      9.046420      7.441430     0.090198    0.386586    1.086734
            26    0       6.031010      8.244480      1.866630    -1.121125   -2.636258   -1.349544
            27    0       5.116840      8.083810      4.193470    -1.639795   -0.138088   -0.204871
            28    0       7.573420      8.815310      9.847400     2.928920   -0.699010   -0.619783
            29    0       5.185360      1.475770      9.656820    -1.866344   -1.017852    1.670834
            30    0       4.824130      6.892840      7.053230     0.406597    2.329476   -0.631785
            31    0       9.897130      0.958870      2.425110     1.735224    0.927048    1.325208
            32    0       5.404530      8.914030      9.814320    -0.947830    3.315873   -0.362394
            33    0       2.760830      8.980320      4.437330     0.393329    0.022478   -1.027045
            34    0       6.828840      9.519470      3.337460     2.022473    0.054761    0.898320
            35    0       3.310410      1.255220      6.009200    -0.377497   -0.159250   -1.344154
            36    0       5.842690      3.360910      6.595180     1.861702    0.040449    0.975538
            37    0       1.342040      5.443040      5.853940     0.387271    0.134666    1.568360
            38    0       8.818470      4.979040      8.425610     0.920290    0.084383   -0.127615
            39    0       3.928850      6.625100      9.354250    -0.386317   -0.660159    0.942955
            40    0       2.628950      1.301210      2.165520    -1.004558   -0.551515   -0.770659
            41    0       0.429480      3.075280      1.114100     1.364455   -0.746400    0.291808
            42    0       3.121320      5.470410      7.522150    -2.217673    0.226266   -0.740829
            43    0       6.866280      7.765460      5.471190    -1.195161   -0.548072    0.149851
            44    0       6.945510      5.084220      9.640340     0.919804   -0.409562    0.946985
            45    0       2.103850      6.742410      3.035970    -1.988070    0.373086    0.880717
            46    0       4.971810      2.302540      2.189900    -0.799928    0.491414    0.448693
            47    0       3.631780      8.137940      2.403860     1.456033    1.842595    0.078660
            48    0       0.651530      6.403160      7.822160     1.974734    0.224505    0.630014
            49    0       4.021170      5.868360      2.399620    -0.420110    0.676309   -1.464277
            50    0       9.788160      4.455300      4.681840     0.086770   -0.005799    0.280010
            51    0      10.209000      3.829010      6.898120    -2.706982    0.692192   -0.794978
            52    0       3.504650      6.628870      5.064600    -1.639509    0.686616    0.010647
            53    0       0.310760      2.629230      9.068360     1.846879    0.393412   -0.251210
            54    0       2.974380      0.716610     10.209730     3.195998   -1.282921   -0.677984
            55    0       5.202700      1.037700      7.050810     2.435697    0.798323    0.924292
            56    0       1.405480      2.623120      5.543950     0.633345    1.771869    0.064473
            57    0       6.791430      2.375890      0.771220    -0.690991    0.370927    0.423453
            58    0       0.054730      6.541980      4.194520     0.326742    2.291325   -0.560804
            59    0       1.399760      9.904220      6.277610     2.083923   -2.835120   -0.859198
            60    0       7.714480      7.691980      7.606740     2.490077    0.982727    0.132401
            61    0       6.539520      2.988040      8.680110    -1.284477    0.333211    1.647963
            62    0       9.170690      7.064140      9.257030     0.417381    0.455684    0.839023
            63    0       3.678220     10.137510      8.330490     1.495395    0.051065   -0.146080
            64    0       1.600670      0.786870      4.156520    -1.447090   -1.417463   -0.418460
            65    0       4.518940      0.116670      1.542430    -0.387126   -0.730090    0.150947
            66    0       1.953030      3.512080      7.624420     3.374527   -0.802637   -0.919176
            67    0       2.918480      7.988730      7.859630    -0.646539   -1.723592   -1.184335
            68    0       0.550130      2.938000      3.465700     2.226512   -1.523938   -1.750426
            69    0       6.028620      9.968250      5.370310     2.051898   -0.122106    0.914362
            70    0       3.448140      8.564290      0.252120    -2.228955    0.223644   -0.161070
            71    0      10.081750      1.119570      6.140270    -3.440097    2.019943   -0.434002
            72    0       5.557040      6.198370      0.787660    -0.487299    2.199915   -0.163042
            73    0       5.101200      4.791480      8.271880     0.482890    0.291447    0.084866
            74    0       8.853110      2.378830      4.275270    -0.319369   -1.038217    2.492372
            75    0       8.808320      0.915310      0.431870    -1.202243   -0.329191   -0.324264
            76    0       2.333360      4.667560      4.137870     0.517610   -0.890112    0.324381
            77    0      10.083150      8.459230      7.369650     0.281046    0.724474    1.741165
            78    0       4.036630      2.653600      8.127180    -0.633171    0.546296   -0.388459
            79    0       7.941510      3.959210      5.948450     1.255867   -1.820365    0.222261
            80    0       4.447570      4.084390      0.169350     1.272507    0.722268    0.662018
            81    0       2.744940      2.858140     10.014970    -2.805943    0.818952    0.209136
            82    0       9.685300      0.698070      8.565750     0.564756   -1.296749    0.078337
            83    0       9.166960      6.275930      6.395390     1.162172   -1.280441    0.593507
            84    0       7.278380      1.597030      5.844240     2.215998   -0.625064    1.692471
            85    0       9.985420      9.043310     10.110170    -0.626996    0.167831    0.643879
            86    0       8.791710      9.320120      2.017660    -0.292225   -1.479141   -0.651132
            87    0       8.429230      9.969760      7.085550    -2.276890   -0.084420   -1.694165