 100 100   0   0
  0.1064800E+02  0.1021150E-08  0.1021150E-08  0.1021150E-08  0.5000000E-15
  1.000000000000000E-004
  CAR 
 unknown system                          
     21.58749134     -4.27086055  301     14.73846101      1.00000000
     -4.271  0.0000E+00  0.0000E+00  0.0000E+00  0.0000E+00
     -4.185  0.0000E+00  0.0000E+00  0.0000E+00  0.0000E+00
     -4.098  0.0000E+00  0.0000E+00  0.0000E+00  0.0000E+00
     -4.012  0.0000E+00  0.0000E+00  0.0000E+00  0.0000E+00
     -3.926  0.0000E+00  0.0000E+00  0.0000E+00  0.0000E+00
     -3.840  0.0000E+00  0.0000E+00  0.0000E+00  0.0000E+00
     -3.754  0.0000E+00  0.0000E+00  0.0000E+00  0.0000E+00
     -3.667  0.0000E+00  0.0000E+00  0.0000E+00  0.0000E+00
     -3.581  0.0000E+00  0.0000E+00  0.0000E+00  0.0000E+00
     -3.495  0.0000E+00  0.0000E+00  0.0000E+00  0.0000E+00
     -3.409  0.0000E+00  0.0000E+00  0.0000E+00  0.0000E+00
     -3.323  0.7534E-09  0.7044E-09  0.6494E-10  0.6072E-10
     -3.237  0.3843E-03  0.3681E-03  0.3312E-04  0.3173E-04
     -3.150  0.7004E+00  0.6863E+00  0.6040E-01  0.5919E-01
     -3.064  0.8724E+01  0.8706E+01  0.8123E+00  0.8096E+00
     -2.978  0.2172E+01  0.2204E+01  0.9996E+00  0.9995E+00
     -2.892  0.5139E-02  0.5330E-02  0.1000E+01  0.1000E+01
     -2.806  0.4810E-07  0.5109E-07  0.1000E+01  0.1000E+01
     -2.719  0.1288E-14  0.1288E-14  0.1000E+01  0.1000E+01
     -2.633  0.0000E+00  0.0000E+00  0.1000E+01  0.1000E+01
     -2.547  0.0000E+00  0.0000E+00  0.1000E+01  0.1000E+01
     -2.461  0.0000E+00  0.0000E+00  0.1000E+01  0.1000E+01
     -2.375  0.0000E+00  0.0000E+00  0.1000E+01  0.1000E+01
     -2.288  0.4468E-10  0.4197E-10  0.1000E+01  0.1000E+01
     -2.202  0.6108E-04  0.5860E-04  0.1000E+01  0.1000E+01
     -2.116  0.2845E+00  0.2786E+00  0.1025E+01  0.1024E+01
     -2.030  0.7703E+01  0.7670E+01  0.1689E+01  0.1685E+01
     -1.944  0.9470E+01  0.9469E+01  0.2505E+01  0.2501E+01
     -1.857  0.5951E+01  0.5982E+01  0.3018E+01  0.3017E+01
     -1.771  0.1041E+02  0.1033E+02  0.3915E+01  0.3907E+01
     -1.685  0.1208E+02  0.1215E+02  0.4956E+01  0.4954E+01
     -1.599  0.1304E+01  0.1302E+01  0.5068E+01  0.5067E+01
     -1.513  0.8820E+01  0.8805E+01  0.5828E+01  0.5826E+01
     -1.426  0.1991E+01  0.2022E+01  0.6000E+01  0.6000E+01
     -1.340  0.1749E+01  0.1723E+01  0.6151E+01  0.6148E+01
     -1.254  0.8924E+01  0.8934E+01  0.6920E+01  0.6918E+01
     -1.168  0.9287E+00  0.9458E+00  0.7000E+01  0.7000E+01
     -1.082  0.3747E-02  0.3679E-02  0.7000E+01  0.7000E+01
     -0.995  0.1754E+01  0.1731E+01  0.7151E+01  0.7149E+01
     -0.909  0.8921E+01  0.8930E+01  0.7920E+01  0.7919E+01
     -0.823  0.9298E+00  0.9445E+00  0.8001E+01  0.8001E+01
     -0.737  0.2508E+01  0.2472E+01  0.8217E+01  0.8214E+01
     -0.651  0.1399E+02  0.1398E+02  0.9423E+01  0.9419E+01
     -0.564  0.8943E+01  0.8956E+01  0.1019E+02  0.1019E+02
     -0.478  0.8788E+01  0.8808E+01  0.1095E+02  0.1095E+02
     -0.392  0.7129E+01  0.7073E+01  0.1157E+02  0.1156E+02
     -0.306  0.1636E+02  0.1639E+02  0.1298E+02  0.1297E+02
     -0.220  0.1202E+02  0.1201E+02  0.1401E+02  0.1401E+02
     -0.134  0.1049E+02  0.1052E+02  0.1492E+02  0.1491E+02
     -0.047  0.3836E+01  0.3811E+01  0.1525E+02  0.1524E+02
      0.039  0.1789E+02  0.1788E+02  0.1679E+02  0.1678E+02
      0.125  0.1136E+02  0.1137E+02  0.1777E+02  0.1776E+02
      0.211  0.1126E+02  0.1128E+02  0.1874E+02  0.1874E+02
      0.297  0.3021E+01  0.3057E+01  0.1900E+02  0.1900E+02
      0.384  0.1200E-01  0.1238E-01  0.1900E+02  0.1900E+02
      0.470  0.5774E-04  0.5505E-04  0.1900E+02  0.1900E+02
      0.556  0.2785E+00  0.2717E+00  0.1902E+02  0.1902E+02
      0.642  0.9188E+01  0.9125E+01  0.1982E+02  0.1981E+02
      0.728  0.1270E+02  0.1275E+02  0.2091E+02  0.2091E+02
      0.815  0.1035E+01  0.1055E+01  0.2100E+02  0.2100E+02
      0.901  0.1018E-02  0.1047E-02  0.2100E+02  0.2100E+02
      0.987  0.6502E+00  0.6359E+00  0.2106E+02  0.2105E+02
      1.073  0.1588E+02  0.1581E+02  0.2243E+02  0.2242E+02
      1.159  0.1671E+02  0.1672E+02  0.2387E+02  0.2386E+02
      1.246  0.1261E+02  0.1267E+02  0.2495E+02  0.2495E+02
      1.332  0.7242E+01  0.7213E+01  0.2558E+02  0.2557E+02
      1.418  0.5024E+01  0.5068E+01  0.2601E+02  0.2601E+02
      1.504  0.6795E+01  0.6762E+01  0.2660E+02  0.2659E+02
      1.590  0.4650E+01  0.4688E+01  0.2700E+02  0.2700E+02
      1.677  0.4274E-01  0.4385E-01  0.2700E+02  0.2700E+02
      1.763  0.1795E-05  0.1878E-05  0.2700E+02  0.2700E+02
      1.849  0.3072E-12  0.3175E-12  0.2700E+02  0.2700E+02
      1.935  0.7234E-06  0.6840E-06  0.2700E+02  0.2700E+02
      2.021  0.2548E-01  0.2467E-01  0.2700E+02  0.2700E+02
      2.108  0.3937E+01  0.3894E+01  0.2734E+02  0.2734E+02
      2.194  0.1019E+02  0.1020E+02  0.2822E+02  0.2822E+02
      2.280  0.1064E+02  0.1065E+02  0.2914E+02  0.2913E+02
      2.366  0.9324E+01  0.9344E+01  0.2994E+02  0.2994E+02
      2.452  0.6000E+01  0.5966E+01  0.3046E+02  0.3045E+02
      2.539  0.6936E+01  0.6964E+01  0.3106E+02  0.3105E+02
      2.625  0.8943E+01  0.8928E+01  0.3183E+02  0.3182E+02
      2.711  0.6432E+01  0.6419E+01  0.3238E+02  0.3238E+02
      2.797  0.6991E+01  0.7034E+01  0.3298E+02  0.3298E+02
      2.883  0.1893E+00  0.1945E+00  0.3300E+02  0.3300E+02
      2.969  0.1715E-02  0.1660E-02  0.3300E+02  0.3300E+02
      3.056  0.1372E+01  0.1351E+01  0.3312E+02  0.3312E+02
      3.142  0.1134E+02  0.1130E+02  0.3410E+02  0.3409E+02
      3.228  0.1669E+02  0.1668E+02  0.3553E+02  0.3553E+02
      3.314  0.1068E+02  0.1067E+02  0.3645E+02  0.3645E+02
      3.400  0.2157E+02  0.2155E+02  0.3831E+02  0.3831E+02
      3.487  0.1779E+02  0.1777E+02  0.3985E+02  0.3984E+02
      3.573  0.1873E+02  0.1875E+02  0.4146E+02  0.4145E+02
      3.659  0.1841E+02  0.1841E+02  0.4305E+02  0.4304E+02
      3.745  0.1845E+02  0.1845E+02  0.4464E+02  0.4463E+02
      3.831  0.2022E+02  0.2023E+02  0.4638E+02  0.4637E+02
      3.918  0.1792E+02  0.1790E+02  0.4793E+02  0.4792E+02
      4.004  0.1506E+02  0.1509E+02  0.4922E+02  0.4922E+02
      4.090  0.1976E+02  0.1975E+02  0.5093E+02  0.5092E+02
      4.176  0.1908E+02  0.1906E+02  0.5257E+02  0.5256E+02
      4.262  0.1654E+02  0.1658E+02  0.5400E+02  0.5399E+02
      4.349  0.1695E+02  0.1691E+02  0.5546E+02  0.5545E+02
      4.435  0.1339E+02  0.1340E+02  0.5661E+02  0.5660E+02
      4.521  0.1532E+02  0.1538E+02  0.5793E+02  0.5793E+02
      4.607  0.1569E+01  0.1569E+01  0.5807E+02  0.5807E+02
      4.693  0.8888E+01  0.8869E+01  0.5883E+02  0.5883E+02
      4.780  0.1173E+02  0.1166E+02  0.5984E+02  0.5984E+02
      4.866  0.2572E+02  0.2575E+02  0.6206E+02  0.6206E+02
      4.952  0.2181E+02  0.2180E+02  0.6394E+02  0.6393E+02
      5.038  0.2451E+02  0.2449E+02  0.6605E+02  0.6605E+02
      5.124  0.1392E+02  0.1396E+02  0.6725E+02  0.6725E+02
      5.211  0.2346E+02  0.2340E+02  0.6928E+02  0.6927E+02
      5.297  0.3251E+02  0.3254E+02  0.7208E+02  0.7207E+02
      5.383  0.1538E+02  0.1542E+02  0.7340E+02  0.7340E+02
      5.469  0.1683E+02  0.1682E+02  0.7486E+02  0.7485E+02
      5.555  0.1306E+02  0.1309E+02  0.7598E+02  0.7598E+02
      5.642  0.1467E+02  0.1463E+02  0.7725E+02  0.7724E+02
      5.728  0.1666E+02  0.1670E+02  0.7868E+02  0.7868E+02
      5.814  0.4417E+01  0.4443E+01  0.7906E+02  0.7906E+02
      5.900  0.8898E+01  0.8882E+01  0.7983E+02  0.7983E+02
      5.986  0.8268E+01  0.8250E+01  0.8054E+02  0.8054E+02
      6.072  0.5254E+01  0.5299E+01  0.8099E+02  0.8099E+02
      6.159  0.6364E-01  0.6553E-01  0.8100E+02  0.8100E+02
      6.245  0.3658E-05  0.3858E-05  0.8100E+02  0.8100E+02
      6.331  0.6827E-12  0.7368E-12  0.8100E+02  0.8100E+02
      6.417  0.0000E+00  0.0000E+00  0.8100E+02  0.8100E+02
      6.503  0.0000E+00  0.0000E+00  0.8100E+02  0.8100E+02
      6.590  0.0000E+00  0.0000E+00  0.8100E+02  0.8100E+02
      6.676  0.0000E+00  0.0000E+00  0.8100E+02  0.8100E+02
      6.762  0.0000E+00  0.0000E+00  0.8100E+02  0.8100E+02
      6.848  0.0000E+00  0.0000E+00  0.8100E+02  0.8100E+02
      6.934  0.1182E-10  0.1099E-10  0.8100E+02  0.8100E+02
      7.021  0.2523E-04  0.2404E-04  0.8100E+02  0.8100E+02
      7.107  0.1803E+00  0.1758E+00  0.8102E+02  0.8102E+02
      7.193  0.6908E+01  0.6868E+01  0.8161E+02  0.8161E+02
      7.279  0.4938E+01  0.4972E+01  0.8204E+02  0.8204E+02
      7.365  0.1360E+02  0.1353E+02  0.8321E+02  0.8320E+02
      7.452  0.1056E+02  0.1061E+02  0.8412E+02  0.8412E+02
      7.538  0.1777E+02  0.1772E+02  0.8565E+02  0.8564E+02
      7.624  0.1692E+02  0.1692E+02  0.8711E+02  0.8710E+02
      7.710  0.1326E+02  0.1329E+02  0.8825E+02  0.8825E+02
      7.796  0.1449E+02  0.1448E+02  0.8950E+02  0.8950E+02
      7.883  0.6392E+01  0.6431E+01  0.9005E+02  0.9005E+02
      7.969  0.1227E+02  0.1221E+02  0.9111E+02  0.9110E+02
      8.055  0.1843E+02  0.1845E+02  0.9270E+02  0.9269E+02
      8.141  0.3483E+01  0.3540E+01  0.9300E+02  0.9300E+02
      8.227  0.3363E+00  0.3284E+00  0.9303E+02  0.9303E+02
      8.314  0.1050E+02  0.1043E+02  0.9393E+02  0.9393E+02
      8.400  0.2123E+02  0.2123E+02  0.9576E+02  0.9576E+02
      8.486  0.1366E+02  0.1372E+02  0.9694E+02  0.9694E+02
      8.572  0.6035E+01  0.5998E+01  0.9746E+02  0.9746E+02
      8.658  0.1696E+02  0.1692E+02  0.9892E+02  0.9891E+02
      8.745  0.2205E+02  0.2207E+02  0.1008E+03  0.1008E+03
      8.831  0.1934E+02  0.1928E+02  0.1025E+03  0.1025E+03
      8.917  0.3289E+02  0.3290E+02  0.1053E+03  0.1053E+03
      9.003  0.1949E+02  0.1956E+02  0.1070E+03  0.1070E+03
      9.089  0.2264E+02  0.2255E+02  0.1090E+03  0.1089E+03
      9.175  0.2266E+02  0.2269E+02  0.1109E+03  0.1109E+03
      9.262  0.2677E+02  0.2676E+02  0.1132E+03  0.1132E+03
      9.348  0.2859E+02  0.2858E+02  0.1157E+03  0.1157E+03
      9.434  0.2353E+02  0.2356E+02  0.1177E+03  0.1177E+03
      9.520  0.1880E+02  0.1881E+02  0.1193E+03  0.1193E+03
      9.606  0.1017E+02  0.1021E+02  0.1202E+03  0.1202E+03
      9.693  0.1180E+02  0.1179E+02  0.1212E+03  0.1212E+03
      9.779  0.8684E+01  0.8723E+01  0.1220E+03  0.1220E+03
      9.865  0.6386E+01  0.6330E+01  0.1225E+03  0.1225E+03
      9.951  0.2141E+02  0.2140E+02  0.1244E+03  0.1244E+03
     10.037  0.1585E+02  0.1584E+02  0.1257E+03  0.1257E+03
     10.124  0.2146E+02  0.2148E+02  0.1276E+03  0.1276E+03
     10.210  0.1204E+02  0.1204E+02  0.1286E+03  0.1286E+03
     10.296  0.1965E+02  0.1960E+02  0.1303E+03  0.1303E+03
     10.382  0.3243E+02  0.3240E+02  0.1331E+03  0.1331E+03
     10.468  0.2866E+02  0.2870E+02  0.1356E+03  0.1356E+03
     10.555  0.1618E+02  0.1621E+02  0.1370E+03  0.1370E+03
     10.641  0.2360E+02  0.2357E+02  0.1390E+03  0.1390E+03
     10.727  0.2266E+02  0.2268E+02  0.1410E+03  0.1410E+03
     10.813  0.2009E+02  0.2005E+02  0.1427E+03  0.1427E+03
     10.899  0.2445E+02  0.2452E+02  0.1448E+03  0.1448E+03
     10.986  0.6663E+01  0.6650E+01  0.1454E+03  0.1454E+03
     11.072  0.8189E+01  0.8224E+01  0.1461E+03  0.1461E+03
     11.158  0.1197E+02  0.1194E+02  0.1471E+03  0.1471E+03
     11.244  0.1489E+02  0.1489E+02  0.1484E+03  0.1484E+03
     11.330  0.1398E+02  0.1400E+02  0.1496E+03  0.1496E+03
     11.417  0.8310E+01  0.8302E+01  0.1503E+03  0.1503E+03
     11.503  0.1594E+02  0.1593E+02  0.1517E+03  0.1517E+03
     11.589  0.1730E+02  0.1725E+02  0.1532E+03  0.1532E+03
     11.675  0.3039E+02  0.3039E+02  0.1558E+03  0.1558E+03
     11.761  0.1574E+02  0.1579E+02  0.1572E+03  0.1572E+03
     11.848  0.2468E+02  0.2458E+02  0.1593E+03  0.1593E+03
     11.934  0.2915E+02  0.2921E+02  0.1618E+03  0.1618E+03
     12.020  0.2042E+02  0.2043E+02  0.1636E+03  0.1635E+03
     12.106  0.1077E+02  0.1078E+02  0.1645E+03  0.1645E+03
     12.192  0.1267E+02  0.1264E+02  0.1656E+03  0.1656E+03
     12.278  0.2495E+02  0.2497E+02  0.1677E+03  0.1677E+03
     12.365  0.1378E+02  0.1379E+02  0.1689E+03  0.1689E+03
     12.451  0.1757E+02  0.1755E+02  0.1704E+03  0.1704E+03
     12.537  0.6572E+01  0.6640E+01  0.1710E+03  0.1710E+03
     12.623  0.6004E-01  0.6179E-01  0.1710E+03  0.1710E+03
     12.709  0.6064E-01  0.5917E-01  0.1710E+03  0.1710E+03
     12.796  0.5178E+01  0.5140E+01  0.1715E+03  0.1714E+03
     12.882  0.8667E+01  0.8660E+01  0.1722E+03  0.1722E+03
     12.968  0.2050E+02  0.2046E+02  0.1740E+03  0.1740E+03
     13.054  0.1545E+02  0.1549E+02  0.1753E+03  0.1753E+03
     13.140  0.8385E+01  0.8415E+01  0.1760E+03  0.1760E+03
     13.227  0.9197E+01  0.9165E+01  0.1768E+03  0.1768E+03
     13.313  0.1534E+02  0.1530E+02  0.1781E+03  0.1781E+03
     13.399  0.1068E+02  0.1074E+02  0.1791E+03  0.1791E+03
     13.485  0.9133E+01  0.9127E+01  0.1798E+03  0.1798E+03
     13.571  0.1828E+01  0.1858E+01  0.1800E+03  0.1800E+03
     13.658  0.3714E+01  0.3661E+01  0.1803E+03  0.1803E+03
     13.744  0.2051E+02  0.2050E+02  0.1821E+03  0.1821E+03
     13.830  0.1438E+02  0.1440E+02  0.1833E+03  0.1833E+03
     13.916  0.9084E+01  0.9108E+01  0.1841E+03  0.1841E+03
     14.002  0.1065E+02  0.1062E+02  0.1850E+03  0.1850E+03
     14.089  0.2039E+02  0.2033E+02  0.1868E+03  0.1868E+03
     14.175  0.2304E+02  0.2307E+02  0.1888E+03  0.1888E+03
     14.261  0.1914E+02  0.1913E+02  0.1904E+03  0.1904E+03
     14.347  0.1599E+02  0.1600E+02  0.1918E+03  0.1918E+03
     14.433  0.1615E+02  0.1617E+02  0.1932E+03  0.1932E+03
     14.520  0.2038E+02  0.2031E+02  0.1949E+03  0.1949E+03
     14.606  0.2721E+02  0.2725E+02  0.1973E+03  0.1973E+03
     14.692  0.1948E+02  0.1936E+02  0.1990E+03  0.1990E+03
     14.778  0.2545E+02  0.2541E+02  0.2012E+03  0.2011E+03
     14.864  0.2033E+02  0.2053E+02  0.2029E+03  0.2029E+03
     14.951  0.1313E+02  0.1309E+02  0.2041E+03  0.2040E+03
     15.037  0.2772E+02  0.2771E+02  0.2064E+03  0.2064E+03
     15.123  0.2412E+02  0.2413E+02  0.2085E+03  0.2085E+03
     15.209  0.2363E+02  0.2359E+02  0.2106E+03  0.2105E+03
     15.295  0.2754E+02  0.2763E+02  0.2129E+03  0.2129E+03
     15.381  0.1351E+02  0.1348E+02  0.2141E+03  0.2141E+03
     15.468  0.3136E+02  0.3128E+02  0.2168E+03  0.2168E+03
     15.554  0.2701E+02  0.2709E+02  0.2191E+03  0.2191E+03
     15.640  0.2326E+02  0.2322E+02  0.2211E+03  0.2211E+03
     15.726  0.3125E+02  0.3124E+02  0.2238E+03  0.2238E+03
     15.812  0.2711E+02  0.2711E+02  0.2262E+03  0.2262E+03
     15.899  0.3315E+02  0.3313E+02  0.2290E+03  0.2290E+03
     15.985  0.2897E+02  0.2899E+02  0.2315E+03  0.2315E+03
     16.071  0.2250E+02  0.2255E+02  0.2335E+03  0.2334E+03
     16.157  0.1256E+02  0.1253E+02  0.2345E+03  0.2345E+03
     16.243  0.2332E+02  0.2333E+02  0.2365E+03  0.2365E+03
     16.330  0.1990E+02  0.1987E+02  0.2383E+03  0.2383E+03
     16.416  0.2555E+02  0.2556E+02  0.2405E+03  0.2405E+03
     16.502  0.2375E+02  0.2373E+02  0.2425E+03  0.2425E+03
     16.588  0.2107E+02  0.2113E+02  0.2443E+03  0.2443E+03
     16.674  0.1393E+02  0.1390E+02  0.2455E+03  0.2455E+03
     16.761  0.1907E+02  0.1910E+02  0.2472E+03  0.2472E+03
     16.847  0.1426E+02  0.1424E+02  0.2484E+03  0.2484E+03
     16.933  0.1149E+02  0.1151E+02  0.2494E+03  0.2494E+03
     17.019  0.1218E+02  0.1219E+02  0.2504E+03  0.2504E+03
     17.105  0.6367E+01  0.6414E+01  0.2510E+03  0.2510E+03
     17.192  0.1157E+00  0.1188E+00  0.2510E+03  0.2510E+03
     17.278  0.1094E-04  0.1148E-04  0.2510E+03  0.2510E+03
     17.364  0.3411E-11  0.3663E-11  0.2510E+03  0.2510E+03
     17.450  0.0000E+00  0.0000E+00  0.2510E+03  0.2510E+03
     17.536  0.0000E+00  0.0000E+00  0.2510E+03  0.2510E+03
     17.623  0.5448E-12  0.5056E-12  0.2510E+03  0.2510E+03
     17.709  0.3137E-05  0.2979E-05  0.2510E+03  0.2510E+03
     17.795  0.5843E-01  0.5678E-01  0.2510E+03  0.2510E+03
     17.881  0.5124E+01  0.5080E+01  0.2514E+03  0.2514E+03
     17.967  0.9223E+01  0.9218E+01  0.2522E+03  0.2522E+03
     18.054  0.1781E+02  0.1781E+02  0.2538E+03  0.2538E+03
     18.140  0.1050E+02  0.1051E+02  0.2547E+03  0.2547E+03
     18.226  0.6078E+01  0.6095E+01  0.2552E+03  0.2552E+03
     18.312  0.9365E+01  0.9373E+01  0.2560E+03  0.2560E+03
     18.398  0.1603E+02  0.1598E+02  0.2574E+03  0.2574E+03
     18.484  0.9436E+01  0.9470E+01  0.2582E+03  0.2582E+03
     18.571  0.1531E+02  0.1528E+02  0.2595E+03  0.2595E+03
     18.657  0.1141E+02  0.1140E+02  0.2605E+03  0.2605E+03
     18.743  0.2678E+02  0.2673E+02  0.2628E+03  0.2628E+03
     18.829  0.2757E+02  0.2760E+02  0.2652E+03  0.2652E+03
     18.915  0.1316E+02  0.1320E+02  0.2663E+03  0.2663E+03
     19.002  0.2464E+02  0.2456E+02  0.2685E+03  0.2684E+03
     19.088  0.3244E+02  0.3246E+02  0.2713E+03  0.2712E+03
     19.174  0.2782E+02  0.2781E+02  0.2736E+03  0.2736E+03
     19.260  0.3678E+02  0.3678E+02  0.2768E+03  0.2768E+03
     19.346  0.2560E+02  0.2562E+02  0.2790E+03  0.2790E+03
     19.433  0.2671E+02  0.2670E+02  0.2813E+03  0.2813E+03
     19.519  0.2669E+02  0.2674E+02  0.2836E+03  0.2836E+03
     19.605  0.1885E+02  0.1879E+02  0.2853E+03  0.2852E+03
     19.691  0.3399E+02  0.3400E+02  0.2882E+03  0.2882E+03
     19.777  0.3109E+02  0.3111E+02  0.2909E+03  0.2909E+03
     19.864  0.3064E+02  0.3081E+02  0.2935E+03  0.2935E+03
     19.950  0.2308E+02  0.2293E+02  0.2955E+03  0.2955E+03
     20.036  0.1996E+02  0.1988E+02  0.2972E+03  0.2972E+03
     20.122  0.2545E+02  0.2647E+02  0.2994E+03  0.2995E+03
     20.208  0.1701E+02  0.1946E+02  0.3009E+03  0.3012E+03
     20.295  0.1868E+02  0.2535E+02  0.3025E+03  0.3033E+03
     20.381  0.8144E+01  0.7566E+01  0.3032E+03  0.3040E+03
     20.467  0.8770E+01  0.4790E-01  0.3039E+03  0.3040E+03
     20.553  0.7004E+00  0.1670E-05  0.3040E+03  0.3040E+03
     20.639  0.3843E-03  0.2022E-12  0.3040E+03  0.3040E+03
     20.726  0.7534E-09  0.0000E+00  0.3040E+03  0.3040E+03
     20.812  0.0000E+00  0.0000E+00  0.3040E+03  0.3040E+03
     20.898  0.0000E+00  0.0000E+00  0.3040E+03  0.3040E+03
     20.984  0.0000E+00  0.0000E+00  0.3040E+03  0.3040E+03
     21.070  0.0000E+00  0.0000E+00  0.3040E+03  0.3040E+03
     21.157  0.0000E+00  0.0000E+00  0.3040E+03  0.3040E+03
     21.243  0.0000E+00  0.0000E+00  0.3040E+03  0.3040E+03
     21.329  0.0000E+00  0.0000E+00  0.3040E+03  0.3040E+03
     21.415  0.0000E+00  0.0000E+00  0.3040E+03  0.3040E+03
     21.501  0.0000E+00  0.0000E+00  0.3040E+03  0.3040E+03
     21.587  0.0000E+00  0.0000E+00  0.3040E+03  0.3040E+03
