  100  100    1    2
  0.1064800E+02  0.1021149E-08  0.1021149E-08  0.1021149E-08  0.5000000E-15
  1.000000000000000E-004
  CAR 
 unknown system                          
    400      1    304
 
  0.0000000E+00  0.0000000E+00  0.0000000E+00  0.1000000E+01
    1       -3.095481     -3.095120   1.000000   1.000000
    2       -2.046416     -2.046099   1.000000   1.000000
    3       -1.944195     -1.943893   1.000000   1.000000
    4       -1.787519     -1.787137   1.000000   1.000000
    5       -1.745912     -1.745475   1.000000   1.000000
    6       -1.546137     -1.545766   1.000000   1.000000
    7       -1.303704     -1.303356   1.000000   1.000000
    8       -0.959045     -0.958738   1.000000   1.000000
    9       -0.708447     -0.708076   1.000000   1.000000
   10       -0.648333     -0.648066   1.000000   1.000000
   11       -0.535058     -0.534694   1.000000   1.000000
   12       -0.387601     -0.387214   1.000000   1.000000
   13       -0.349882     -0.349568   1.000000   1.000000
   14       -0.259167     -0.258766   1.000000   1.000000
   15       -0.182201     -0.181844   1.000000   1.000000
   16       -0.015599     -0.015274   1.000000   1.000000
   17        0.007063      0.007445   1.000000   1.000000
   18        0.103193      0.103561   1.000000   1.000000
   19        0.188545      0.188875   1.000000   1.000000
   20        0.626072      0.626438   1.000000   1.000000
   21        0.680450      0.680812   1.000000   1.000000
   22        1.053408      1.053715   1.000000   1.000000
   23        1.055781      1.056161   1.000000   1.000000
   24        1.143333      1.143693   1.000000   1.000000
   25        1.190002      1.190401   1.000000   1.000000
   26        1.324938      1.325316   1.000000   1.000000
   27        1.495625      1.495928   1.000000   1.000000
   28        2.122048      2.122411   1.000000   1.000000
   29        2.218572      2.218917   1.000000   1.000000
   30        2.312487      2.312759   1.000000   1.000000
   31        2.456039      2.456405   1.000000   1.000000
   32        2.591837      2.592241   1.000000   1.000000
   33        2.721555      2.721940   1.000000   1.000000
   34        3.097583      3.097895   1.000000   1.000000
   35        3.173308      3.173667   1.000000   1.000000
   36        3.219846      3.220152   1.000000   1.000000
   37        3.327250      3.327575   1.000000   1.000000
   38        3.360341      3.360670   1.000000   1.000000
   39        3.405325      3.405631   1.000000   1.000000
   40        3.477906      3.478286   1.000000   1.000000
   41        3.510030      3.510358   1.000000   1.000000
   42        3.576965      3.577383   1.000000   1.000000
   43        3.631758      3.632115   1.000000   1.000000
   44        3.680790      3.681134   1.000000   1.000000
   45        3.743126      3.743455   1.000000   1.000000
   46        3.782846      3.783154   1.000000   1.000000
   47        3.835605      3.835950   1.000000   1.000000
   48        3.906423      3.906803   1.000000   1.000000
   49        3.935037      3.935430   1.000000   1.000000
   50        4.036290      4.036642   1.000000   1.000000
   51        4.055305      4.055704   1.000000   1.000000
   52        4.127584      4.127892   1.000000   1.000000
   53        4.171973      4.172377   1.000000   1.000000
   54        4.219877      4.220248   1.000000   1.000000
   55        4.306820      4.307156   1.000000   1.000000
   56        4.342221      4.342688   1.000000   1.000000
   57        4.442372      4.442720   1.000000   1.000000
   58        4.464410      4.464751   1.000000   1.000000
   59        4.660036      4.660424   1.000000   1.000000
   60        4.784576      4.784901   1.000000   1.000000
   61        4.799984      4.800320   1.000000   1.000000
   62        4.821299      4.821638   1.000000   1.000000
   63        4.905137      4.905461   1.000000   1.000000
   64        4.916669      4.917041   1.000000   1.000000
   65        4.989298      4.989642   1.000000   1.000000
   66        5.011687      5.012073   1.000000   1.000000
   67        5.050393      5.050751   1.000000   1.000000
   68        5.153739      5.154205   1.000000   1.000000
   69        5.176858      5.177220   1.000000   1.000000
   70        5.229131      5.229458   1.000000   1.000000
   71        5.253831      5.254155   1.000000   1.000000
   72        5.258190      5.258585   1.000000   1.000000
   73        5.309932      5.310296   1.000000   1.000000
   74        5.393441      5.393818   1.000000   1.000000
   75        5.444329      5.444770   1.000000   1.000000
   76        5.511954      5.512338   1.000000   1.000000
   77        5.602826      5.603191   1.000000   1.000000
   78        5.654691      5.655102   1.000000   1.000000
   79        5.709069      5.709347   1.000000   1.000000
   80        5.867838      5.868140   1.000000   1.000000
   81        5.982549      5.982913   1.000000   1.000000
   82        7.183041      7.183396   1.000000   1.000000
   83        7.343983      7.344295   1.000000   1.000000
   84        7.367042      7.367422   1.000000   1.000000
   85        7.496885      7.497211   1.000000   1.000000
   86        7.518644      7.519022   1.000000   1.000000
   87        7.590507      7.590846   1.000000   1.000000
   88        7.644400      7.644835   1.000000   1.000000
   89        7.731283      7.731593   1.000000   1.000000
   90        7.793295      7.793663   1.000000   1.000000
   91        7.938306      7.938665   1.000000   1.000000
   92        7.990414      7.990724   1.000000   1.000000
   93        8.032956      8.033409   1.000000   1.000000
   94        8.295342      8.295743   1.000000   1.000000
   95        8.341053      8.341354   1.000000   1.000000
   96        8.388148      8.388499   1.000000   1.000000
   97        8.431546      8.431825   1.000000   1.000000
   98        8.578265      8.578609   1.000000   1.000000
   99        8.639416      8.639736   1.000000   1.000000
  100        8.692230      8.692635   1.000000   1.000000
  101        8.712899      8.713266   1.000000   1.000000
  102        8.795058      8.795553   1.000000   1.000000
  103        8.846354      8.846739   1.000000   1.000000
  104        8.853234      8.853570   1.000000   1.000000
  105        8.888492      8.888780   1.000000   1.000000
  106        8.923610      8.923946   1.000000   1.000000
  107        8.950724      8.951088   1.000000   1.000000
  108        9.059283      9.059645   1.000000   1.000000
  109        9.072590      9.073035   1.000000   1.000000
  110        9.093744      9.094061   1.000000   1.000000
  111        9.161198      9.161557   1.000000   1.000000
  112        9.207111      9.207472   1.000000   1.000000
  113        9.226129      9.226583   1.000000   1.000000
  114        9.278276      9.278562   1.000000   1.000000
  115        9.306961      9.307323   1.000000   1.000000
  116        9.337475      9.337854   1.000000   1.000000
  117        9.379193      9.379567   1.000000   1.000000
  118        9.417918      9.418325   1.000000   1.000000
  119        9.481691      9.482066   1.000000   1.000000
  120        9.523225      9.523602   1.000000   1.000000
  121        9.634671      9.635050   1.000000   1.000000
  122        9.714119      9.714440   1.000000   1.000000
  123        9.874879      9.875197   1.000000   1.000000
  124        9.905900      9.906233   1.000000   1.000000
  125        9.953826      9.954198   1.000000   1.000000
  126       10.033428     10.033749   1.000000   1.000000
  127       10.070230     10.070578   1.000000   1.000000
  128       10.110706     10.111085   1.000000   1.000000
  129       10.205942     10.206273   1.000000   1.000000
  130       10.260251     10.260612   1.000000   1.000000
  131       10.315813     10.316142   1.000000   1.000000
  132       10.333364     10.333767   1.000000   1.000000
  133       10.358707     10.359053   1.000000   1.000000
  134       10.392994     10.393387   1.000000   1.000000
  135       10.436133     10.436532   1.000000   1.000000
  136       10.448009     10.448355   1.000000   1.000000
  137       10.523986     10.524362   1.000000   1.000000
  138       10.600077     10.600377   1.000000   1.000000
  139       10.607464     10.607794   1.000000   1.000000
  140       10.663757     10.664131   1.000000   1.000000
  141       10.700227     10.700579   1.000000   1.000000
  142       10.754747     10.755099   1.000000   1.000000
  143       10.818460     10.818817   1.000000   1.000000
  144       10.841011     10.841393   1.000000   1.000000
  145       10.861708     10.862146   1.000000   1.000000
  146       10.996968     10.997486   1.000000   1.000000
  147       11.117964     11.118352   1.000000   1.000000
  148       11.183389     11.183748   1.000000   1.000000
  149       11.251089     11.251480   1.000000   1.000000
  150       11.320401     11.320734   1.000000   1.000000
  151       11.435451     11.435872   1.000000   1.000000
  152       11.487171     11.487522   1.000000   1.000000
  153       11.561889     11.562281   1.000000   1.000000
  154       11.611889     11.612238   1.000000   1.000000
  155       11.631416     11.631822   1.000000   1.000000
  156       11.654683     11.655082   1.000000   1.000000
  157       11.701585     11.701904   1.000000   1.000000
  158       11.794591     11.794976   1.000000   1.000000
  159       11.830081     11.830434   1.000000   1.000000
  160       11.856917     11.857278   1.000000   1.000000
  161       11.872529     11.872932   1.000000   1.000000
  162       11.915759     11.916065   1.000000   1.000000
  163       11.971613     11.971957   1.000000   1.000000
  164       12.007525     12.007958   1.000000   1.000000
  165       12.107523     12.107955   1.000000   1.000000
  166       12.207141     12.207535   1.000000   1.000000
  167       12.220732     12.221103   1.000000   1.000000
  168       12.255520     12.255874   1.000000   1.000000
  169       12.334116     12.334492   1.000000   1.000000
  170       12.410341     12.410702   1.000000   1.000000
  171       12.446014     12.446361   1.000000   1.000000
  172       12.799984     12.800283   1.000000   1.000000
  173       12.917686     12.918074   1.000000   1.000000
  174       12.939114     12.939475   1.000000   1.000000
  175       12.992200     12.992481   1.000000   1.000000
  176       13.069021     13.069334   1.000000   1.000000
  177       13.201496     13.201839   1.000000   1.000000
  178       13.285021     13.285365   1.000000   1.000000
  179       13.326281     13.326695   1.000000   1.000000
  180       13.449634     13.450020   1.000000   1.000000
  181       13.687119     13.687475   1.000000   1.000000
  182       13.699533     13.699851   1.000000   1.000000
  183       13.768114     13.768453   1.000000   1.000000
  184       13.841905     13.842235   1.000000   1.000000
  185       13.956211     13.956538   1.000000   1.000000
  186       14.052310     14.052675   1.000000   1.000000
  187       14.062191     14.062580   1.000000   1.000000
  188       14.130508     14.130880   1.000000   1.000000
  189       14.147222     14.147540   1.000000   1.000000
  190       14.222917     14.223203   1.000000   1.000000
  191       14.257287     14.257639   1.000000   1.000000
  192       14.332378     14.332728   1.000000   1.000000
  193       14.384906     14.385238   1.000000   1.000000
  194       14.454958     14.455296   1.000000   1.000000
  195       14.519199     14.519543   1.000000   1.000000
  196       14.537344     14.537676   1.000000   1.000000
  197       14.553387     14.553705   1.000000   1.000000
  198       14.619067     14.619373   0.999634   0.999622
  199       14.666216     14.666588   0.979494   0.978968
  200       14.721621     14.723142   0.683075   0.667597
  201       14.764589     14.765224   0.229948   0.224536
  202       14.781769     14.782386   0.110299   0.107045
  203       14.820672     14.821039   0.010029   0.009755
  204       14.926770     14.927086   0.000000   0.000000
  205       14.975880     14.976262   0.000000   0.000000
  206       15.008604     15.008947   0.000000   0.000000
  207       15.027154     15.027454   0.000000   0.000000
  208       15.088459     15.088811   0.000000   0.000000
  209       15.109814     15.110245   0.000000   0.000000
  210       15.185539     15.185887   0.000000   0.000000
  211       15.213555     15.213881   0.000000   0.000000
  212       15.235751     15.236067   0.000000   0.000000
  213       15.247819     15.248128   0.000000   0.000000
  214       15.345635     15.346022   0.000000   0.000000
  215       15.413916     15.414251   0.000000   0.000000
  216       15.438716     15.439101   0.000000   0.000000
  217       15.458297     15.458665   0.000000   0.000000
  218       15.478174     15.478534   0.000000   0.000000
  219       15.517481     15.517849   0.000000   0.000000
  220       15.576001     15.576322   0.000000   0.000000
  221       15.620674     15.621030   0.000000   0.000000
  222       15.654962     15.655314   0.000000   0.000000
  223       15.686544     15.686857   0.000000   0.000000
  224       15.709173     15.709550   0.000000   0.000000
  225       15.749641     15.750031   0.000000   0.000000
  226       15.789573     15.789968   0.000000   0.000000
  227       15.830780     15.831100   0.000000   0.000000
  228       15.852568     15.852902   0.000000   0.000000
  229       15.881150     15.881478   0.000000   0.000000
  230       15.910955     15.911354   0.000000   0.000000
  231       15.947471     15.947816   0.000000   0.000000
  232       15.992237     15.992595   0.000000   0.000000
  233       16.008069     16.008357   0.000000   0.000000
  234       16.070896     16.071224   0.000000   0.000000
  235       16.169785     16.170171   0.000000   0.000000
  236       16.190885     16.191246   0.000000   0.000000
  237       16.237343     16.237703   0.000000   0.000000
  238       16.297174     16.297496   0.000000   0.000000
  239       16.351734     16.352121   0.000000   0.000000
  240       16.362961     16.363320   0.000000   0.000000
  241       16.416813     16.417164   0.000000   0.000000
  242       16.467592     16.467933   0.000000   0.000000
  243       16.505303     16.505683   0.000000   0.000000
  244       16.529505     16.529829   0.000000   0.000000
  245       16.598671     16.599010   0.000000   0.000000
  246       16.692829     16.693155   0.000000   0.000000
  247       16.699075     16.699507   0.000000   0.000000
  248       16.786047     16.786412   0.000000   0.000000
  249       16.852101     16.852575   0.000000   0.000000
  250       16.942251     16.942615   0.000000   0.000000
  251       17.023092     17.023438   0.000000   0.000000
  252       17.885912     17.886264   0.000000   0.000000
  253       17.998010     17.998386   0.000000   0.000000
  254       18.022409     18.022785   0.000000   0.000000
  255       18.122927     18.123361   0.000000   0.000000
  256       18.254635     18.254994   0.000000   0.000000
  257       18.370048     18.370343   0.000000   0.000000
  258       18.388712     18.389048   0.000000   0.000000
  259       18.514271     18.514616   0.000000   0.000000
  260       18.563538     18.563930   0.000000   0.000000
  261       18.666526     18.666888   0.000000   0.000000
  262       18.700298     18.700660   0.000000   0.000000
  263       18.737309     18.737649   0.000000   0.000000
  264       18.756934     18.757320   0.000000   0.000000
  265       18.810604     18.811029   0.000000   0.000000
  266       18.827576     18.827905   0.000000   0.000000
  267       18.936344     18.936700   0.000000   0.000000
  268       18.971199     18.971571   0.000000   0.000000
  269       19.012896     19.013261   0.000000   0.000000
  270       19.025168     19.025546   0.000000   0.000000
  271       19.059981     19.060376   0.000000   0.000000
  272       19.095793     19.096154   0.000000   0.000000
  273       19.132035     19.132370   0.000000   0.000000
  274       19.181625     19.181984   0.000000   0.000000
  275       19.202031     19.202399   0.000000   0.000000
  276       19.213768     19.214101   0.000000   0.000000
  277       19.247614     19.248019   0.000000   0.000000
  278       19.277506     19.277859   0.000000   0.000000
  279       19.331221     19.331587   0.000000   0.000000
  280       19.362766     19.363187   0.000000   0.000000
  281       19.400549     19.400912   0.000000   0.000000
  282       19.447190     19.447537   0.000000   0.000000
  283       19.466482     19.466838   0.000000   0.000000
  284       19.501063     19.501386   0.000000   0.000000
  285       19.588389     19.588716   0.000000   0.000000
  286       19.620914     19.621231   0.000000   0.000000
  287       19.635192     19.635563   0.000000   0.000000
  288       19.664478     19.664739   0.000000   0.000000
  289       19.699743     19.699977   0.000000   0.000000
  290       19.745467     19.745982   0.000000   0.000000
  291       19.764195     19.764532   0.000000   0.000000
  292       19.794513     19.794661   0.000000   0.000000
  293       19.823775     19.823319   0.000000   0.000000
  294       19.873112     19.872076   0.000000   0.000000
  295       19.886168     19.886840   0.000000   0.000000
  296       19.954327     19.954991   0.000000   0.000000
  297       19.996614     19.996155   0.000000   0.000000
  298       20.056608     20.057516   0.000000   0.000000
  299       20.090231     20.094927   0.000000   0.000000
  300       20.114846     20.107531   0.000000   0.000000
  301       20.184861     20.173416   0.000000   0.000000
  302       20.250778     20.230951   0.000000   0.000000
  303       20.286531     20.267913   0.000000   0.000000
  304       20.412112     20.285119   0.000000   0.000000
