       N       E                     dE             d eps       ncg     rms          rms(c)
RMM:   1     0.138713148114E+04    0.13871E+04   -0.74691E+04   608   0.514E+02
RMM:   2     0.116947308096E+02   -0.13754E+04   -0.13213E+04   608   0.120E+02
RMM:   3    -0.274160886743E+03   -0.28586E+03   -0.28004E+03   608   0.495E+01
RMM:   4    -0.354957720051E+03   -0.80797E+02   -0.67608E+02   608   0.283E+01
RMM:   5    -0.381034322317E+03   -0.26077E+02   -0.21153E+02   608   0.129E+01
RMM:   6    -0.390857976915E+03   -0.98237E+01   -0.75067E+01   608   0.765E+00
RMM:   7    -0.394403526159E+03   -0.35455E+01   -0.29196E+01   608   0.387E+00
RMM:   8    -0.395843861343E+03   -0.14403E+01   -0.11736E+01   608   0.238E+00
RMM:   9    -0.396686499447E+03   -0.84264E+00   -0.76901E+00  1500   0.128E+00
RMM:  10    -0.396795327875E+03   -0.10883E+00   -0.54577E-01  1433   0.248E-01
RMM:  11    -0.396797720712E+03   -0.23928E-02   -0.16701E-02  1342   0.440E-02
RMM:  12    -0.396797735710E+03   -0.14998E-04   -0.15161E-04  1093   0.589E-03    0.623E+01
RMM:  13    -0.401271885333E+03   -0.44741E+01   -0.15406E+01  1341   0.387E+00    0.376E+01
RMM:  14    -0.408873852184E+03   -0.76020E+01   -0.61944E+00  1343   0.282E+00    0.176E+01
RMM:  15    -0.409617399134E+03   -0.74355E+00   -0.15012E+00  1383   0.122E+00    0.371E+00
RMM:  16    -0.409753522115E+03   -0.13612E+00   -0.40138E-01  1398   0.684E-01    0.248E+00
RMM:  17    -0.409839731845E+03   -0.86210E-01   -0.11300E-01  1431   0.341E-01    0.145E+00
RMM:  18    -0.409886720960E+03   -0.46989E-01   -0.37896E-02  1406   0.212E-01    0.708E-01
RMM:  19    -0.409898158952E+03   -0.11438E-01   -0.11579E-02  1424   0.119E-01    0.303E-01
RMM:  20    -0.409900763014E+03   -0.26041E-02   -0.40509E-03  1433   0.711E-02    0.164E-01
RMM:  21    -0.409901672999E+03   -0.90999E-03   -0.14928E-03  1410   0.434E-02    0.109E-01
RMM:  22    -0.409902293166E+03   -0.62017E-03   -0.10436E-03  1402   0.377E-02    0.658E-02
RMM:  23    -0.409902574309E+03   -0.28114E-03   -0.53909E-04  1415   0.270E-02    0.432E-02
RMM:  24    -0.409902722664E+03   -0.14836E-03   -0.37898E-04  1394   0.229E-02    0.260E-02
RMM:  25    -0.409902785321E+03   -0.62657E-04   -0.21977E-04  1408   0.173E-02    0.140E-02
RMM:  26    -0.409902803996E+03   -0.18674E-04   -0.86433E-05  1428   0.106E-02    0.711E-03
RMM:  27    -0.409902808277E+03   -0.42810E-05   -0.20461E-05  1003   0.517E-03
   1 F= -.40990281E+03 E0= -.40987009E+03  d E =-.654358E-01  mag=     0.0118
