 vasp.5.4.4.18Apr17-6-g9f103f2a35 (build Sep 16 2020 16:20:45) complex          
  
 executed on             LinuxIFC date 2021.08.09  15:41:55
 running on   16 total cores
 distrk:  each k-point on   16 cores,    1 groups
 distr:  one band on NCORES_PER_BAND=   1 cores,   16 groups


--------------------------------------------------------------------------------------------------------


 INCAR:
 POTCAR:    PAW_PBE Si 05Jan2001                  

 ----------------------------------------------------------------------------- 
|                                                                             |
|           W    W    AA    RRRRR   N    N  II  N    N   GGGG   !!!           |
|           W    W   A  A   R    R  NN   N  II  NN   N  G    G  !!!           |
|           W    W  A    A  R    R  N N  N  II  N N  N  G       !!!           |
|           W WW W  AAAAAA  RRRRR   N  N N  II  N  N N  G  GGG   !            |
|           WW  WW  A    A  R   R   N   NN  II  N   NN  G    G                |
|           W    W  A    A  R    R  N    N  II  N    N   GGGG   !!!           |
|                                                                             |
|      For optimal performance we recommend to set                            |
|        NCORE= 4 - approx SQRT( number of cores)                             |
|      NCORE specifies how many cores store one orbital (NPAR=cpu/NCORE).     |
|      This setting can  greatly improve the performance of VASP for DFT.     |
|      The default,   NCORE=1            might be grossly inefficient         |
|      on modern multi-core architectures or massively parallel machines.     |
|      Do your own testing !!!!                                               |
|      Unfortunately you need to use the default for GW and RPA calculations. |
|      (for HF NCORE is supported but not extensively tested yet)             |
|                                                                             |
 ----------------------------------------------------------------------------- 

 POTCAR:    PAW_PBE Si 05Jan2001                  
   SHA256 =  79d9987ad8750f624c4d6acb2a16d13abf6a777132adc04dc6c8399be72b42bb Si
   COPYR  = (c) Copyright 05Jan2001 Georg Kresse                                
   COPYR  = This file is part of the software VASP. Any use, copying, and all ot
   COPYR  = If you do not have a valid VASP license, you may not use, copy or di
   VRHFIN =Si: s2p2                                                             
   LEXCH  = PE                                                                  
   EATOM  =   103.0669 eV,    7.5752 Ry                                         
                                                                                
   TITEL  = PAW_PBE Si 05Jan2001                                                
   LULTRA =        F    use ultrasoft PP ?                                      
   IUNSCR =        1    unscreen: 0-lin 1-nonlin 2-no                           
   RPACOR =    1.500    partial core radius                                     
   POMASS =   28.085; ZVAL   =    4.000    mass and valenz                      
   RCORE  =    1.900    outmost cutoff radius                                   
   RWIGS  =    2.480; RWIGS  =    1.312    wigner-seitz radius (au A)           
   ENMAX  =  245.345; ENMIN  =  184.009 eV                                      
   ICORE  =        2    local potential                                         
   LCOR   =        T    correct aug charges                                     
   LPAW   =        T    paw PP                                                  
   EAUG   =  322.069                                                            
   DEXC   =    0.000                                                            
   RMAX   =    1.950    core radius for proj-oper                               
   RAUG   =    1.300    factor for augmentation sphere                          
   RDEP   =    1.993    radius for radial grids                                 
   RDEPT  =    1.837    core radius for aug-charge                              
                                                                                
   Atomic configuration                                                         
    6 entries                                                                   
     n  l   j            E        occ.                                          
     1  0  0.50     -1785.8828   2.0000                                         
     2  0  0.50      -139.4969   2.0000                                         
     2  1  1.50       -95.5546   6.0000                                         
     3  0  0.50       -10.8127   2.0000                                         
     3  1  0.50        -4.0811   2.0000                                         
     3  2  1.50        -4.0817   0.0000                                         
   Description                                                                  
     l       E           TYP  RCUT    TYP  RCUT                                 
     0    -10.8127223     23  1.900                                             
     0     -7.6451159     23  1.900                                             
     1     -4.0811372     23  1.900                                             
     1      2.4879257     23  1.900                                             
     2     -4.0817478      7  1.900                                             
  local pseudopotential read in
  partial core-charges read in
  partial kinetic energy density read in
  atomic valenz-charges read in
  non local Contribution for L=           0  read in
    real space projection operators read in
  non local Contribution for L=           0  read in
    real space projection operators read in
  non local Contribution for L=           1  read in
    real space projection operators read in
  non local Contribution for L=           1  read in
    real space projection operators read in
    PAW grid and wavefunctions read in
 
   number of l-projection  operators is LMAX  =           4
   number of lm-projection operators is LMMAX =           8
 
 Optimization of the real space projectors (new method)

 maximal supplied QI-value         = 19.84
 optimisation between [QCUT,QGAM] = [  7.94, 15.87] = [ 17.64, 70.56] Ry 
 Optimized for a Real-space Cutoff    1.57 Angstroem

   l    n(q)    QCUT    max X(q) W(low)/X(q) W(high)/X(q)  e(spline) 
   0      7     7.937   159.560    0.16E-03    0.38E-03    0.13E-06
   0      7     7.937   115.863    0.15E-03    0.37E-03    0.13E-06
   1      7     7.937    88.339    0.42E-03    0.67E-03    0.13E-06
   1      7     7.937    48.592    0.41E-03    0.65E-03    0.13E-06
  PAW_PBE Si 05Jan2001                  :
 energy of atom  1       EATOM= -103.0669
 kinetic energy error for atom=    0.0056 (will be added to EATOM!!)
 
 
 POSCAR: Si                                      
  positions in cartesian coordinates
  No initial velocities read in
 exchange correlation table for  LEXCH =        8
   RHO(1)=    0.500       N(1)  =     2000
   RHO(2)=  100.500       N(2)  =     4000
 


--------------------------------------------------------------------------------------------------------


 ion  position               nearest neighbor table
   1  0.130  0.431  0.419-  10 2.30  96 2.32  78 2.32  73 2.35  12 2.41  54 2.46  72 2.46  32 2.68
                            58 2.74  13 2.79  71 2.83 100 2.99  69 3.00  11 3.00
   2  0.824  0.128  0.454-  48 2.13  72 2.21  28 2.21  19 2.39  11 2.41  57 2.50  25 2.55  47 2.67
                             4 2.71  75 2.77  97 2.95  42 2.98  22 2.99  15 3.13
   3  0.959  0.664  0.712-  20 2.17  52 2.18  10 2.23  68 2.23   6 2.31  81 2.35  69 2.44  89 2.47
                            13 2.56  74 2.79  86 2.85  15 2.91
   4  0.750  0.346  0.587-  72 2.18  60 2.40  21 2.41  69 2.42  48 2.42  56 2.49  68 2.52  75 2.56
                             2 2.71  94 2.72  89 2.81  28 3.09
   5  0.564  0.974  0.844-  51 2.22  42 2.40  92 2.42  45 2.44  24 2.46  55 2.50  74 2.55  49 2.58
                            91 2.60  62 2.64  87 2.70  75 2.89  80 3.06   9 3.07
   6  0.967  0.789  0.900-  39 2.21  34 2.22   3 2.31  81 2.35  50 2.37  31 2.46  74 2.54  77 2.61
                            86 2.68  15 2.79  24 2.79  52 2.84  61 2.89
   7  0.447  0.684  0.904-   9 2.18  66 2.31  40 2.37  45 2.38  51 2.41   8 2.51  61 2.55  65 2.60
                            84 2.61  44 2.62  93 2.68
   8  0.487  0.554  0.700-  63 2.27  84 2.28  71 2.32  45 2.35  66 2.39  21 2.42   7 2.51  60 2.53
                            56 2.53  89 2.54  40 2.76
   9  0.622  0.735  0.016-   7 2.18  39 2.21  40 2.36  95 2.39  62 2.51  98 2.53  51 2.54  74 2.58
                            86 2.72  93 2.75  44 2.81   5 3.07
  10  0.108  0.535  0.618-   3 2.23  71 2.27  82 2.28  13 2.29   1 2.30  68 2.36  69 2.52  58 2.53
                            84 2.56  81 2.71  78 2.76  52 2.76
  11  0.951  0.238  0.289-  72 2.24  54 2.34   2 2.41  47 2.50  35 2.55  38 2.55  99 2.58  57 2.61
                            70 2.62  25 2.67  94 2.75   1 3.00  32 3.09  73 3.10
  12  0.310  0.520  0.294-  96 2.23 100 2.28  67 2.29  63 2.38   1 2.41  32 2.41  58 2.43  44 2.54
                            43 2.71  93 2.73  79 2.74  65 2.81  76 3.07
  13  0.014  0.674  0.469-  69 2.07  58 2.24  10 2.29  22 2.30  73 2.35  27 2.51  20 2.53   3 2.56
                            52 2.60 100 2.63  18 2.69  30 2.78   1 2.79
  14  0.509  0.945  0.213-  62 2.11  97 2.19  51 2.34  80 2.34  85 2.35  98 2.41  23 2.45  76 2.47
                            93 2.53  53 2.57  64 2.71
  15  0.880  0.936  0.687-  42 2.10  22 2.30  74 2.31  28 2.31  75 2.35  24 2.40  50 2.41  20 2.46
                            19 2.75  52 2.77   6 2.79   3 2.91   2 3.13
  16  0.024  0.451  0.957-  77 2.10  38 2.20  81 2.26  82 2.31  32 2.34  86 2.46  29 2.48  68 2.54
                            59 2.58  35 2.63  65 2.90  41 2.96
  17  0.295  0.883  0.554-  87 2.07  46 2.22  53 2.31  76 2.31  52 2.32  55 2.34  18 2.41  58 2.42
                            84 2.57  83 2.97  22 3.09  45 3.10
  18  0.168  0.858  0.357-  53 2.18 100 2.21  58 2.23  85 2.28  22 2.30  70 2.35  76 2.38  27 2.38
                            17 2.41  47 2.61  13 2.69  34 3.06
  19  0.794  0.897  0.435-  22 2.18  97 2.27  20 2.28  98 2.38   2 2.39  42 2.47  25 2.48  27 2.49
                            30 2.57  36 2.69  15 2.75
  20  0.803  0.732  0.584-   3 2.17  69 2.22  19 2.28  89 2.29  74 2.41  15 2.46  60 2.48  13 2.53
                            36 2.55  30 2.63  42 2.66  22 2.75  45 3.07
  21  0.593  0.350  0.763-  91 2.12  92 2.28  56 2.33   4 2.41   8 2.42  26 2.43  40 2.50  29 2.72
                            90 2.74  89 2.75  75 2.86
  22  0.998  0.897  0.499-  19 2.18  47 2.23  52 2.29  18 2.30  13 2.30  15 2.30  46 2.50  27 2.51
                            28 2.74  20 2.75   2 2.99  17 3.09  70 3.14
  23  0.481  0.156  0.323-  83 2.24  53 2.28  48 2.29  79 2.36  97 2.37  57 2.38  80 2.45  14 2.45
                            64 2.46  96 2.50  67 2.59  56 3.11
  24  0.797  0.004  0.897-  31 2.22  75 2.27  62 2.34  74 2.36  15 2.40   5 2.46  99 2.54  91 2.58
                            41 2.64  39 2.68   6 2.79  50 2.90  42 2.92
  25  0.816  0.022  0.228-  57 2.21  62 2.21  99 2.27  31 2.45  98 2.45  19 2.48   2 2.55  70 2.58
                            27 2.62  11 2.67  39 2.82  97 3.05
  26  0.469  0.321  0.964-  49 2.17  91 2.25  59 2.29  21 2.43  67 2.45  66 2.45  40 2.45  80 2.46
                            90 2.50  44 2.52  33 2.53
  27  0.955  0.811  0.273-  18 2.38  30 2.45  70 2.46 100 2.47  19 2.49  22 2.51  13 2.51  34 2.54
                            39 2.54  98 2.61  25 2.62  73 2.78  77 2.86  31 2.98
  28  0.965  0.134  0.619-  72 2.17  46 2.19   2 2.21  41 2.29  75 2.29  15 2.31  47 2.32  78 2.47
                            22 2.74  50 2.78  37 3.01   4 3.09
  29  0.812  0.340  0.914-  91 2.16  41 2.20  99 2.32  38 2.33  33 2.39  86 2.42  68 2.47  16 2.48
                            21 2.72  40 2.81  75 2.95
  30  0.777  0.665  0.337-  98 1.96  95 2.25  43 2.33  94 2.44  27 2.45  73 2.48  60 2.52  69 2.57
                            19 2.57  20 2.63  36 2.69  13 2.78
  31  0.961  0.986  0.040-  70 2.22  24 2.22  99 2.33  39 2.37  88 2.45  34 2.45  25 2.45   6 2.46
                            50 2.51  35 2.75  27 2.98  41 3.02  62 3.04
  32  0.137  0.437  0.157-  59 2.24  73 2.34  16 2.34  65 2.38  35 2.38  12 2.41  77 2.51  54 2.54
                           100 2.57  38 2.59  67 2.61   1 2.68  11 3.09
  33  0.672  0.362  0.100-  38 2.26  57 2.30  95 2.31  40 2.37  29 2.39  79 2.44  26 2.53  99 2.56
                            91 2.57  80 2.60  94 2.65  44 2.65  86 3.13
  34  0.101  0.794  0.072-   6 2.22  77 2.27 100 2.28  65 2.45  31 2.45  85 2.45  61 2.47  88 2.54
                            27 2.54  81 2.72  70 2.80  39 2.84  18 3.06
  35  0.077  0.227  0.074-  59 2.23  32 2.38  54 2.47  99 2.48  11 2.55  88 2.55  16 2.63  70 2.64
                            38 2.73  31 2.75  41 2.77  64 2.80  37 2.81
  36  0.577  0.756  0.483-  76 2.26  60 2.29  97 2.30  45 2.36  63 2.41  43 2.43  87 2.53  20 2.55
                            19 2.69  30 2.69  42 2.79  98 2.86
  37  0.173  0.160  0.825-  50 2.11  90 2.13  41 2.28  82 2.29  88 2.44  49 2.48  46 2.49  55 2.52
                            59 2.63  78 2.76  35 2.81  28 3.01
  38  0.887  0.409  0.118-  16 2.20  33 2.26  77 2.27  95 2.30  29 2.33  73 2.36  99 2.46  94 2.54
                            11 2.55  32 2.59  86 2.60  35 2.73
  39  0.823  0.801  0.062-  98 2.19   9 2.21   6 2.21  62 2.35  31 2.37  77 2.53  27 2.54  95 2.60
                            86 2.64  24 2.68  74 2.80  25 2.82  34 2.84
  40  0.604  0.518  0.942-  44 2.15  86 2.27   9 2.36   7 2.37  33 2.37  26 2.45  21 2.50  95 2.51
                            89 2.58   8 2.76  29 2.81  66 2.89
  41  0.954  0.199  0.834-  29 2.20  37 2.28  28 2.29  75 2.37  50 2.52  82 2.57  24 2.64  99 2.70
                            35 2.77  68 2.78  16 2.96  31 3.02
  42  0.681  0.955  0.640-  15 2.10  87 2.10  75 2.16  74 2.35   5 2.40  45 2.44  19 2.47  97 2.53
                            92 2.63  20 2.66  48 2.69  36 2.79  24 2.92   2 2.98
  43  0.558  0.615  0.293-  44 2.33  30 2.33  63 2.39  79 2.42  36 2.43  95 2.43  93 2.50  98 2.54
                            60 2.61  76 2.63  12 2.71  94 2.88
  44  0.469  0.524  0.104-  40 2.15  67 2.32  43 2.33  93 2.34  65 2.51  26 2.52  12 2.54  79 2.56
                             7 2.62  33 2.65  95 2.80   9 2.81  66 2.82
  45  0.534  0.779  0.710-  87 2.23  74 2.30   8 2.35  36 2.36   7 2.38   5 2.44  42 2.44  84 2.62
                            89 2.89  55 2.99  20 3.07  17 3.10
  46  0.159  0.043  0.611-  47 2.07  28 2.19  17 2.22  78 2.36  55 2.37  50 2.39  37 2.49  22 2.50
                            52 2.57  83 2.66  53 3.01
  47  0.081  0.086  0.430-  46 2.07  70 2.20  22 2.23  54 2.29  28 2.32  11 2.50  78 2.57  18 2.61
                            53 2.65   2 2.67  72 2.76  83 3.15
  48  0.623  0.168  0.496-   2 2.13  97 2.23  92 2.24  23 2.29  56 2.32   4 2.42  57 2.59  83 2.60
                            42 2.69  75 2.71  87 2.79  79 3.09
  49  0.386  0.127  0.938-  26 2.17  64 2.31  80 2.34  88 2.37  90 2.41  55 2.41  51 2.47  37 2.48
                             5 2.58  59 2.65  91 2.82  92 2.89
  50  0.070  0.982  0.819-  37 2.11   6 2.37  46 2.39  88 2.40  15 2.41  61 2.46  52 2.46  31 2.51
                            41 2.52  28 2.78  55 2.85  24 2.90
  51  0.435  0.899  0.001-   5 2.22  14 2.34  85 2.35  93 2.36  61 2.39   7 2.41  49 2.47   9 2.54
                            62 2.60  88 2.71  80 2.87  55 2.92  64 2.97
  52  0.115  0.802  0.665-   3 2.18  22 2.29  84 2.31  17 2.32  50 2.46  46 2.57  61 2.60  13 2.60
                            81 2.73  58 2.76  10 2.76  15 2.77   6 2.84  55 3.14
  53  0.320  0.007  0.367-  18 2.18  83 2.21  85 2.23  76 2.26  23 2.28  17 2.31  64 2.46  14 2.57
                            47 2.65  97 2.78  54 2.82  87 2.88  70 2.95  46 3.01
  54  0.180  0.233  0.293-  96 2.22  47 2.29  64 2.32  11 2.34   1 2.46  35 2.47  67 2.47  32 2.54
                            70 2.57  53 2.82  78 2.97  83 3.04
  55  0.339  0.994  0.749-  87 2.17  17 2.34  61 2.35  46 2.37  49 2.41   5 2.50  37 2.52  92 2.53
                            50 2.85  90 2.90  51 2.92  83 2.98  45 2.99  88 3.08  52 3.14
  56  0.509  0.357  0.550-  96 2.32  48 2.32  21 2.33  71 2.39  63 2.40   4 2.49  60 2.50  83 2.50
                             8 2.53  92 2.55  79 2.62  90 2.93  23 3.11
  57  0.700  0.202  0.257-  25 2.21  33 2.30  80 2.34  23 2.38  99 2.39  79 2.49   2 2.50  94 2.50
                            48 2.59  11 2.61  62 3.01  97 3.08
  58  0.234  0.675  0.458-  18 2.23  13 2.24  76 2.26 100 2.28  63 2.32  17 2.42  12 2.43  84 2.52
                            10 2.53   1 2.74  52 2.76  71 3.13
  59  0.247  0.339  0.995-  66 2.23  35 2.23  32 2.24  67 2.28  26 2.29  16 2.58  90 2.60  37 2.63
                            82 2.64  49 2.65  65 2.77  64 2.87
  60  0.657  0.550  0.519-  69 2.27  36 2.29  63 2.32  89 2.34   4 2.40  20 2.48  56 2.50  30 2.52
                            94 2.52   8 2.53  43 2.61  79 3.11
  61  0.246  0.831  0.882-  55 2.35  88 2.38  51 2.39  81 2.43  50 2.46  34 2.47  84 2.54   7 2.55
                            52 2.60  65 2.80   6 2.89  85 3.12
  62  0.666  0.968  0.082-  80 2.09  14 2.11  25 2.21  98 2.30  24 2.34  39 2.35   9 2.51  51 2.60
                             5 2.64  99 2.77  57 3.01  31 3.04  91 3.05
  63  0.433  0.569  0.486-   8 2.27  58 2.32  60 2.32  12 2.38  43 2.39  56 2.40  36 2.41  71 2.42
                            76 2.67  96 2.72  84 2.75  79 2.94
  64  0.316  0.117  0.153-  88 2.13  85 2.14  49 2.31  67 2.31  54 2.32  53 2.46  23 2.46  80 2.49
                            14 2.71  35 2.80  70 2.82  59 2.87  51 2.97
  65  0.246  0.607  0.041-  81 2.17  93 2.30  66 2.31  32 2.38 100 2.44  34 2.45  44 2.51   7 2.60
                            77 2.77  59 2.77  61 2.80  12 2.81  16 2.90
  66  0.333  0.493  0.865-  59 2.23   7 2.31  65 2.31   8 2.39  90 2.43  71 2.45  26 2.45  81 2.52
                            84 2.57  82 2.65  44 2.82  40 2.89
  67  0.370  0.335  0.181-  79 2.13  59 2.28  12 2.29  64 2.31  44 2.32  96 2.33  26 2.45  54 2.47
                            23 2.59  32 2.61  80 2.89
  68  0.924  0.449  0.729-  82 2.23   3 2.23  69 2.29  10 2.36  89 2.37  29 2.47   4 2.52  16 2.54
                            86 2.71  41 2.78  72 2.79  81 3.07
  69  0.878  0.536  0.528-  13 2.07  20 2.22  60 2.27  68 2.29   4 2.42   3 2.44  72 2.45  10 2.52
                            94 2.56  30 2.57  89 2.61  73 2.67   1 3.00
  70  0.068  0.019  0.225-  47 2.20  31 2.22  18 2.35  27 2.46  85 2.52  88 2.53  54 2.57  25 2.58
                            11 2.62  35 2.64  34 2.80  64 2.82  53 2.95  22 3.14
  71  0.305  0.435  0.634-  90 2.10  10 2.27  78 2.30   8 2.32  56 2.39  82 2.40  63 2.42  66 2.45
                            84 2.53  96 2.56   1 2.83  58 3.13  83 3.14
  72  0.939  0.306  0.497-  28 2.17   4 2.18   2 2.21  11 2.24  78 2.43  69 2.45   1 2.46  94 2.74
                            47 2.76  68 2.79
  73  0.978  0.540  0.286-  77 2.20 100 2.23  32 2.34  13 2.35   1 2.35  38 2.36  30 2.48  94 2.53
                            69 2.67  27 2.78  95 2.90  11 3.10
  74  0.739  0.801  0.801-  45 2.30  15 2.31  42 2.35  24 2.36  89 2.37  20 2.41   6 2.54   5 2.55
                             9 2.58   3 2.79  39 2.80  86 2.81
  75  0.764  0.132  0.719-  42 2.16  24 2.27  28 2.29  15 2.35  91 2.35  41 2.37  92 2.49   4 2.56
                            48 2.71   2 2.77  21 2.86   5 2.89  29 2.95
  76  0.393  0.799  0.368-  58 2.26  53 2.26  36 2.26  93 2.26  17 2.31  18 2.38  14 2.47  85 2.54
                            43 2.63  63 2.67  97 2.67  87 2.95 100 3.05  12 3.07
  77  0.978  0.609  0.081-  16 2.10  73 2.20  86 2.22  34 2.27  38 2.27  32 2.51  39 2.53 100 2.55
                            95 2.57   6 2.61  81 2.66  65 2.77  27 2.86
  78  0.160  0.272  0.580-  82 2.22  71 2.30   1 2.32  46 2.36  72 2.43  28 2.47  83 2.52  47 2.57
                            90 2.59  96 2.59  37 2.76  10 2.76  54 2.97
  79  0.538  0.379  0.297-  67 2.13  23 2.36  94 2.39  96 2.40  43 2.42  33 2.44  57 2.49  44 2.56
                            56 2.62  12 2.74  63 2.94  48 3.09  60 3.11
  80  0.552  0.137  0.095-  62 2.09  91 2.31  57 2.34  49 2.34  14 2.34  23 2.45  26 2.46  64 2.49
                            33 2.60  51 2.87  67 2.89  99 2.97   5 3.06
  81  0.125  0.626  0.867-  65 2.17  16 2.26   6 2.35   3 2.35  61 2.43  66 2.52  84 2.55  77 2.66
                            10 2.71  34 2.72  52 2.73  82 2.77  68 3.07
  82  0.125  0.372  0.770-  78 2.22  68 2.23  10 2.28  37 2.29  16 2.31  90 2.35  71 2.40  41 2.57
                            59 2.64  66 2.65  81 2.77
  83  0.369  0.161  0.511-  96 2.09  53 2.21  23 2.24  92 2.42  56 2.50  78 2.52  87 2.53  48 2.60
                            46 2.66  90 2.86  17 2.97  55 2.98  54 3.04  97 3.13  71 3.14  47 3.15
  84  0.300  0.675  0.695-   8 2.28  52 2.31  58 2.52  71 2.53  61 2.54  81 2.55  10 2.56  66 2.57
                            17 2.57   7 2.61  45 2.62  63 2.75
  85  0.284  0.911  0.174-  93 2.13  64 2.14  88 2.15  53 2.23  18 2.28  51 2.35  14 2.35  34 2.45
                            70 2.52  76 2.54 100 2.92  61 3.12
  86  0.819  0.575  0.937-  77 2.22  95 2.24  89 2.27  40 2.27  29 2.42  16 2.46  38 2.60  39 2.64
                             6 2.68  68 2.71   9 2.72  74 2.81   3 2.85  33 3.13
  87  0.480  0.956  0.594-  17 2.07  42 2.10  97 2.16  55 2.17  45 2.23  92 2.26  83 2.53  36 2.53
                             5 2.70  48 2.79  53 2.88  76 2.95
  88  0.197  0.016  0.014-  64 2.13  85 2.15  49 2.37  61 2.38  50 2.40  37 2.44  31 2.45  70 2.53
                            34 2.54  35 2.55  51 2.71  55 3.08
  89  0.733  0.579  0.733-  86 2.27  20 2.29  60 2.34  68 2.37  74 2.37   3 2.47   8 2.54  40 2.58
                            69 2.61  21 2.75   4 2.81  45 2.89
  90  0.334  0.278  0.764-  71 2.10  37 2.13  82 2.35  49 2.41  66 2.43  92 2.43  26 2.50  78 2.59
                            59 2.60  21 2.74  83 2.86  55 2.90  56 2.93
  91  0.647  0.207  0.903-  21 2.12  29 2.16  26 2.25  80 2.31  75 2.35  33 2.57  92 2.58  24 2.58
                             5 2.60  99 2.62  49 2.82  62 3.05
  92  0.522  0.151  0.691-  48 2.24  87 2.26  21 2.28  83 2.42   5 2.42  90 2.43  75 2.49  55 2.53
                            56 2.55  91 2.58  42 2.63  49 2.89
  93  0.393  0.733  0.156-  85 2.13  76 2.26  65 2.30  44 2.34  51 2.36  43 2.50  14 2.53   7 2.68
                            12 2.73 100 2.73   9 2.75
  94  0.763  0.426  0.334-  79 2.39  30 2.44  95 2.50  57 2.50  60 2.52  73 2.53  38 2.54  69 2.56
                            33 2.65   4 2.72  72 2.74  11 2.75  43 2.88
  95  0.736  0.574  0.141-  86 2.24  30 2.25  38 2.30  33 2.31   9 2.39  43 2.43  94 2.50  40 2.51
                            77 2.57  39 2.60  98 2.64  44 2.80  73 2.90
  96  0.335  0.334  0.407-  83 2.09  54 2.22  12 2.23  56 2.32   1 2.32  67 2.33  79 2.40  23 2.50
                            71 2.56  78 2.59  63 2.72
  97  0.586  0.970  0.412-  87 2.16  14 2.19  48 2.23  19 2.27  36 2.30  23 2.37  42 2.53  98 2.67
                            76 2.67  53 2.78   2 2.95  25 3.05  57 3.08  83 3.13
  98  0.702  0.811  0.238-  30 1.96  39 2.19  62 2.30  19 2.38  14 2.41  25 2.45   9 2.53  43 2.54
                            27 2.61  95 2.64  97 2.67  36 2.86
  99  0.839  0.177  0.070-  25 2.27  29 2.32  31 2.33  57 2.39  38 2.46  35 2.48  24 2.54  33 2.56
                            11 2.58  91 2.62  41 2.70  62 2.77  80 2.97
 100  0.151  0.670  0.251-  18 2.21  73 2.23  12 2.28  34 2.28  58 2.28  65 2.44  27 2.47  77 2.55
                            32 2.57  13 2.63  93 2.73  85 2.92   1 2.99  76 3.05
 

IMPORTANT INFORMATION: All symmetrisations will be switched off!
NOSYMM: (Re-)initialisation of all symmetry stuff for point group C_1.

 
 
 KPOINTS: simple                                  

Automatic generation of k-mesh.
Space group operators:
 irot       det(A)        alpha          n_x          n_y          n_z        tau_x        tau_y        tau_z
    1     1.000000     0.000000     1.000000     0.000000     0.000000     0.000000     0.000000     0.000000
 
 Subroutine IBZKPT returns following result:
 ===========================================
 
 Found      1 irreducible k-points:
 
 Following reciprocal coordinates:
            Coordinates               Weight
  0.000000  0.000000  0.000000      1.000000
 
 Following cartesian coordinates:
            Coordinates               Weight
  0.000000  0.000000  0.000000      1.000000
 


--------------------------------------------------------------------------------------------------------




 Dimension of arrays:
   k-points           NKPTS =      1   k-points in BZ     NKDIM =      1   number of bands    NBANDS=    304
   number of dos      NEDOS =    301   number of ions     NIONS =    100
   non local maximal  LDIM  =      4   non local SUM 2l+1 LMDIM =      8
   total plane-waves  NPLWV =  64000
   max r-space proj   IRMAX =   1017   max aug-charges    IRDMAX=   2209
   dimension x,y,z NGX =    40 NGY =   40 NGZ =   40
   dimension x,y,z NGXF=    80 NGYF=   80 NGZF=   80
   support grid    NGXF=    80 NGYF=   80 NGZF=   80
   ions per type =             100
   NGX,Y,Z   is equivalent  to a cutoff of   6.51,  6.51,  6.51 a.u.
   NGXF,Y,Z  is equivalent  to a cutoff of  13.02, 13.02, 13.02 a.u.

 SYSTEM =  unknown system                          
 POSCAR =  Si                                      

 Startparameter for this run:
   NWRITE =      2    write-flag & timer
   PREC   = normal    normal or accurate (medium, high low for compatibility)
   ISTART =      0    job   : 0-new  1-cont  2-samecut
   ICHARG =      2    charge: 1-file 2-atom 10-const
   ISPIN  =      2    spin polarized calculation?
   LNONCOLLINEAR =      F non collinear calculations
   LSORBIT =      F    spin-orbit coupling
   INIWAV =      1    electr: 0-lowe 1-rand  2-diag
   LASPH  =      F    aspherical Exc in radial PAW
   METAGGA=      F    non-selfconsistent MetaGGA calc.

 Electronic Relaxation 1
   ENCUT  =  245.3 eV  18.03 Ry    4.25 a.u.  13.04 13.04 13.04*2*pi/ulx,y,z
   ENINI  =  245.3     initial cutoff
   ENAUG  =  322.1 eV  augmentation charge cutoff
   NELM   =     60;   NELMIN=  4; NELMDL=-12     # of ELM steps 
   EDIFF  = 0.1E-04   stopping-criterion for ELM
   LREAL  =      T    real-space projection
   NLSPLINE    = F    spline interpolate recip. space projectors
   LCOMPAT=      F    compatible to vasp.4.4
   GGA_COMPAT  = T    GGA compatible to vasp.4.4-vasp.4.6
   LMAXPAW     = -100 max onsite density
   LMAXMIX     =    2 max onsite mixed and CHGCAR
   VOSKOWN=      0    Vosko Wilk Nusair interpolation
   ROPT   =   -0.00050
 Ionic relaxation
   EDIFFG = 0.1E-03   stopping-criterion for IOM
   NSW    =      0    number of steps for IOM
   NBLOCK =      1;   KBLOCK =      1    inner block; outer block 
   IBRION =     -1    ionic relax: 0-MD 1-quasi-New 2-CG
   NFREE  =      0    steps in history (QN), initial steepest desc. (CG)
   ISIF   =      2    stress and relaxation
   IWAVPR =     10    prediction:  0-non 1-charg 2-wave 3-comb
   ISYM   =      0    0-nonsym 1-usesym 2-fastsym
   LCORR  =      T    Harris-Foulkes like correction to forces

   POTIM  = 0.5000    time-step for ionic-motion
   TEIN   =    0.0    initial temperature
   TEBEG  =    0.0;   TEEND  =   0.0 temperature during run
   SMASS  =  -3.00    Nose mass-parameter (am)
   estimated Nose-frequenzy (Omega)   =  0.10E-29 period in steps =****** mass=  -0.238E-26a.u.
   SCALEE = 1.0000    scale energy and forces
   NPACO  =    256;   APACO  = 16.0  distance and # of slots for P.C.
   PSTRESS=    0.0 pullay stress

  Mass of Ions in am
   POMASS =  28.09
  Ionic Valenz
   ZVAL   =   4.00
  Atomic Wigner-Seitz radii
   RWIGS  =  -1.00
  virtual crystal weights 
   VCA    =   1.00
   NELECT =     400.0000    total number of electrons
   NUPDOWN=      -1.0000    fix difference up-down

 DOS related values:
   EMIN   =  10.00;   EMAX   =-10.00  energy-range for DOS
   EFERMI =   0.00
   ISMEAR =     0;   SIGMA  =   0.05  broadening in eV -4-tet -1-fermi 0-gaus

 Electronic relaxation 2 (details)
   IALGO  =     48    algorithm
   LDIAG  =      T    sub-space diagonalisation (order eigenvalues)
   LSUBROT=      F    optimize rotation matrix (better conditioning)
   TURBO    =      0    0=normal 1=particle mesh
   IRESTART =      0    0=no restart 2=restart with 2 vectors
   NREBOOT  =      0    no. of reboots
   NMIN     =      0    reboot dimension
   EREF     =   0.00    reference energy to select bands
   IMIX   =      4    mixing-type and parameters
     AMIX     =   0.40;   BMIX     =  1.00
     AMIX_MAG =   1.60;   BMIX_MAG =  1.00
     AMIN     =   0.10
     WC   =   100.;   INIMIX=   1;  MIXPRE=   1;  MAXMIX= -45

 Intra band minimization:
   WEIMIN = 0.0000     energy-eigenvalue tresh-hold
   EBREAK =  0.82E-08  absolut break condition
   DEPER  =   0.30     relativ break condition  

   TIME   =   0.40     timestep for ELM

  volume/ion in A,a.u.               =      10.65        71.86
  Fermi-wavevector in a.u.,A,eV,Ry     =   1.181242  2.232223 18.984649  1.395332
  Thomas-Fermi vector in A             =   2.317519
 
 Write flags
   LWAVE        =      F    write WAVECAR
   LDOWNSAMPLE  =      F    k-point downsampling of WAVECAR
   LCHARG       =      F    write CHGCAR
   LVTOT        =      F    write LOCPOT, total local potential
   LVHAR        =      F    write LOCPOT, Hartree potential only
   LELF         =      F    write electronic localiz. function (ELF)
   LORBIT       =      0    0 simple, 1 ext, 2 COOP (PROOUT), +10 PAW based schemes


 Dipole corrections
   LMONO  =      F    monopole corrections only (constant potential shift)
   LDIPOL =      F    correct potential (dipole corrections)
   IDIPOL =      0    1-x, 2-y, 3-z, 4-all directions 
   EPSILON=  1.0000000 bulk dielectric constant

 Exchange correlation treatment:
   GGA     =    --    GGA type
   LEXCH   =     8    internal setting for exchange type
   VOSKOWN=      0    Vosko Wilk Nusair interpolation
   LHFCALC =     F    Hartree Fock is set to
   LHFONE  =     F    Hartree Fock one center treatment
   AEXX    =    0.0000 exact exchange contribution

 Linear response parameters
   LEPSILON=     F    determine dielectric tensor
   LRPA    =     F    only Hartree local field effects (RPA)
   LNABLA  =     F    use nabla operator in PAW spheres
   LVEL    =     F    velocity operator in full k-point grid
   LINTERFAST=   F  fast interpolation
   KINTER  =     0    interpolate to denser k-point grid
   CSHIFT  =0.1000    complex shift for real part using Kramers Kronig
   OMEGAMAX=  -1.0    maximum frequency
   DEG_THRESHOLD= 0.2000000E-02 threshold for treating states as degnerate
   RTIME   =   -0.100 relaxation time in fs
  (WPLASMAI=    0.000 imaginary part of plasma frequency in eV, 0.658/RTIME)
   DFIELD  = 0.0000000 0.0000000 0.0000000 field for delta impulse in time
 
 Orbital magnetization related:
   ORBITALMAG=     F  switch on orbital magnetization
   LCHIMAG   =     F  perturbation theory with respect to B field
   DQ        =  0.001000  dq finite difference perturbation B field
   LLRAUG    =     F  two centre corrections for induced B field



--------------------------------------------------------------------------------------------------------


 Static calculation
 charge density and potential will be updated during run
 spin polarized calculation
 RMM-DIIS sequential band-by-band
 perform sub-space diagonalisation
    before iterative eigenvector-optimisation
 modified Broyden-mixing scheme, WC =      100.0
 initial mixing is a Kerker type mixing with AMIX =  0.4000 and BMIX =      1.0000
 Hartree-type preconditioning will be used
 using additional bands          104
 real space projection scheme for non local part
 use partial core corrections
 calculate Harris-corrections to forces 
   (improved forces if not selfconsistent)
 use gradient corrections 
 use of overlap-Matrix (Vanderbilt PP)
 Gauss-broadening in eV      SIGMA  =   0.05


--------------------------------------------------------------------------------------------------------


  energy-cutoff  :      245.34
  volume of cell :     1064.80
      direct lattice vectors                 reciprocal lattice vectors
    10.211495000  0.000000000  0.000000000     0.097928854  0.000000000  0.000000000
     0.000000000 10.211495000  0.000000000     0.000000000  0.097928854  0.000000000
     0.000000000  0.000000000 10.211495000     0.000000000  0.000000000  0.097928854

  length of vectors
    10.211495000 10.211495000 10.211495000     0.097928854  0.097928854  0.097928854


 
 k-points in units of 2pi/SCALE and weight: simple                                  
   0.00000000  0.00000000  0.00000000       1.000
 
 k-points in reciprocal lattice and weights: simple                                  
   0.00000000  0.00000000  0.00000000       1.000
 
 position of ions in fractional coordinates (direct lattice) 
   0.13018600  0.43132400  0.41934000
   0.82405500  0.12839400  0.45445400
   0.95856500  0.66380800  0.71229100
   0.75041200  0.34584900  0.58712800
   0.56432300  0.97448800  0.84359900
   0.96708000  0.78932800  0.90036500
   0.44742100  0.68417600  0.90443600
   0.48745400  0.55372500  0.70018700
   0.62198800  0.73546900  0.01596740
   0.10751600  0.53524100  0.61803900
   0.95087100  0.23798800  0.28875900
   0.30980800  0.51995000  0.29425900
   0.01436310  0.67429600  0.46858700
   0.50869200  0.94479960  0.21300600
   0.87969400  0.93597500  0.68695700
   0.02431150  0.45084100  0.95744100
   0.29500000  0.88314600  0.55360100
   0.16771600  0.85769200  0.35681000
   0.79449300  0.89664200  0.43484000
   0.80342100  0.73178500  0.58449800
   0.59282300  0.35048500  0.76289100
   0.99788000  0.89653000  0.49892000
   0.48114200  0.15627700  0.32321200
   0.79706900  0.00358000  0.89687300
   0.81608600  0.02215080  0.22831700
   0.46868300  0.32100200  0.96369200
   0.95509100  0.81102000  0.27277800
   0.96484500  0.13410300  0.61880800
   0.81237100  0.33980700  0.91409000
   0.77651700  0.66500600  0.33714500
   0.96055400  0.98625500  0.03972020
   0.13658000  0.43682500  0.15665000
   0.67189200  0.36167900  0.10012800
   0.10062300  0.79424300  0.07171670
   0.07707510  0.22710100  0.07367850
   0.57686900  0.75636300  0.48316300
   0.17337700  0.16000000  0.82502000
   0.88699800  0.40900300  0.11836700
   0.82300500  0.80120600  0.06201010
   0.60434200  0.51783900  0.94159900
   0.95411600  0.19862200  0.83363400
   0.68078300  0.95467800  0.64011000
   0.55784200  0.61520600  0.29306700
   0.46933400  0.52398600  0.10361800
   0.53428800  0.77912900  0.70954400
   0.15905100  0.04321060  0.61137100
   0.08073740  0.08618450  0.42982900
   0.62304500  0.16782800  0.49623900
   0.38573800  0.12716000  0.93759300
   0.06963230  0.98153300  0.81903900
   0.43497600  0.89944300  0.00120000
   0.11467000  0.80167400  0.66522000
   0.31993200  0.00739020  0.36676300
   0.18009000  0.23318600  0.29260500
   0.33917400  0.99418200  0.74860000
   0.50947200  0.35729400  0.55032000
   0.70018700  0.20225000  0.25681700
   0.23384100  0.67535100  0.45787300
   0.24744500  0.33927200  0.99477000
   0.65670400  0.55005800  0.51911600
   0.24596900  0.83058300  0.88171300
   0.66630400  0.96824800  0.08157680
   0.43284500  0.56937700  0.48553400
   0.31573100  0.11698000  0.15250100
   0.24638100  0.60678700  0.04064350
   0.33332700  0.49296200  0.86522700
   0.36951800  0.33510700  0.18146500
   0.92448600  0.44881600  0.72926000
   0.87816400  0.53577400  0.52757800
   0.06825320  0.01851100  0.22544900
   0.30542800  0.43523700  0.63421700
   0.93948200  0.30613300  0.49712500
   0.97793900  0.54015800  0.28563300
   0.73915800  0.80069100  0.80140100
   0.76376000  0.13243300  0.71884700
   0.39318500  0.79882900  0.36757400
   0.97838000  0.60869500  0.08102620
   0.15975700  0.27248300  0.57965200
   0.53756800  0.37893800  0.29661000
   0.55183400  0.13685800  0.09516550
   0.12533900  0.62589500  0.86686900
   0.12460000  0.37233800  0.77004000
   0.36850600  0.16119000  0.51090700
   0.30010500  0.67519600  0.69522500
   0.28415200  0.91051000  0.17424500
   0.81919000  0.57532100  0.93724900
   0.48016400  0.95633300  0.59377300
   0.19687200  0.01588000  0.01396000
   0.73253600  0.57903900  0.73305000
   0.33433100  0.27761200  0.76370300
   0.64727200  0.20742000  0.90311900
   0.52224200  0.15083400  0.69065300
   0.39260400  0.73299200  0.15628300
   0.76333900  0.42616900  0.33377400
   0.73645900  0.57449400  0.14064800
   0.33502900  0.33394600  0.40671100
   0.58627800  0.96965650  0.41156900
   0.70161700  0.81113800  0.23845000
   0.83910600  0.17743900  0.07032870
   0.15054200  0.66996800  0.25057100
 
 position of ions in cartesian coordinates  (Angst):
   1.32939369  4.40446287  4.28208831
   8.41483351  1.31109469  4.64065475
   9.78838170  6.77847207  7.27355599
   7.66282839  3.53163533  5.99545464
   5.76258149  9.95097934  8.61440697
   9.87533258  8.06021893  9.19407270
   4.56883730  6.98645980  9.23564369
   4.97763408  5.65436007  7.14995605
   6.35142735  7.51023802  0.16305103
   1.09789910  5.46561080  6.31110216
   9.70981446  2.43021327  2.94866108
   3.16360284  5.30946683  3.00482431
   0.14666872  6.88557023  4.78497381
   5.19450581  9.64781639  2.17510970
   8.98299088  9.55770403  7.01485797
   0.24825676  4.60376062  9.77690398
   3.01239103  9.01824096  5.65309384
   1.71263110  8.75831757  3.64356353
   8.11296130  9.15605530  4.44036649
   8.20412952  7.47261887  5.96859840
   6.05360910  3.57897583  7.79025763
  10.18984663  9.15491161  5.09471909
   4.91317913  1.59582180  3.30047772
   8.13926611  0.03655715  9.15841416
   8.33345811  0.22619278  2.33145790
   4.78595411  3.27791032  9.84073604
   9.75290697  8.28172667  2.78547118
   9.85250989  1.36939211  6.31895480
   8.29552240  3.46993748  9.33422546
   7.92939946  6.79070544  3.44275448
   9.80869237 10.07113800  0.40560262
   1.39468599  4.46063630  1.59963069
   6.86102180  3.69328330  1.02245657
   1.02751126  8.11040842  0.73233472
   0.78705200  2.31904073  0.75236763
   5.89069491  7.72359699  4.93381656
   1.77043837  1.63383920  8.42468760
   9.05757564  4.17653209  1.20870403
   8.40411144  8.18151106  0.63321583
   6.17123531  5.28791036  9.61513348
   9.74295076  2.02822756  8.51264942
   6.95181220  9.74868962  6.53648006
   5.69640079  6.28217299  2.99265221
   4.79260179  5.35068042  1.05809469
   5.45587924  7.95607189  7.24550501
   1.62414849  0.44124483  6.24301191
   0.82444956  0.88007259  4.38919668
   6.36222090  1.71377478  5.06734207
   3.93896166  1.29849370  9.57422623
   0.71104988 10.02291932  8.36361265
   4.44175525  9.18465770  0.01225379
   1.17095213  8.18629004  6.79289070
   3.26698402  0.07546499  3.74519854
   1.83898813  2.38117767  2.98793449
   3.46347361 10.15208452  7.64432516
   5.20247078  3.64850589  5.61958993
   7.14995605  2.06527486  2.62248551
   2.38786620  6.89634336  4.67556785
   2.52678338  3.46447433 10.15808888
   6.70592961  5.61691452  5.30095044
   2.51171121  8.48149415  9.00360789
   6.80395996  9.88725961  0.83302109
   4.41999455  5.81419039  4.95802801
   3.22408553  1.19454069  1.55726320
   2.51591835  6.19620242  0.41503090
   3.40376699  5.03387900  8.83526118
   3.77333121  3.42194345  1.85302894
   9.44038417  4.58308234  7.44683484
   8.96736730  5.47105352  5.38736011
   0.69696721  0.18902498  2.30217134
   3.11887649  4.44442045  6.47630372
   9.59351575  3.12607560  5.07638945
   9.98621921  5.51582072  2.91673995
   7.54790822  8.17625214  8.18350230
   7.79913142  1.35233892  7.34050255
   4.01500666  8.15723834  3.75348006
   9.99072248  6.21568595  0.82739864
   1.63135781  2.78245879  5.91911350
   5.48937294  3.86952349  3.02883153
   5.63505013  1.39752478  0.97178203
   1.27989857  6.39132366  8.85202846
   1.27235228  3.80212763  7.86325961
   3.76299718  1.64599088  5.21712428
   3.06452071  6.89476058  7.09928661
   2.90161673  9.29766831  1.77930195
   8.36515459  5.87488751  9.57071348
   4.90319229  9.76558965  6.06331002
   2.01035744  0.16215854  0.14255247
   7.48028770  5.91285385  7.48553641
   3.41401933  2.83483355  7.79854937
   6.60961479  2.11806829  9.22219515
   5.33287157  1.54024064  7.05259966
   4.00907378  7.48494414  1.59588307
   7.79483238  4.35182261  3.40833153
   7.52034740  5.86644261  1.43622635
   3.42114696  3.41008791  4.15312734
   5.98677487  9.90164250  4.20273479
   7.16455849  8.28293163  2.43493098
   8.56852672  1.81191746  0.71816117
   1.53725888  6.84137488  2.55870451
 


--------------------------------------------------------------------------------------------------------


 k-point  1 :   0.0000 0.0000 0.0000  plane waves:    9315

 maximum and minimum number of plane-waves per node :      9315     9315

 maximum number of plane-waves:      9315
 maximum index in each direction: 
   IXMAX=   13   IYMAX=   13   IZMAX=   13
   IXMIN=  -13   IYMIN=  -13   IZMIN=  -13


 serial   3D FFT for wavefunctions
 parallel 3D FFT for charge:
    minimum data exchange during FFTs selected (reduces bandwidth)


 total amount of memory used by VASP MPI-rank0    53948. kBytes
=======================================================================

   base      :      30000. kBytes
   nonlr-proj:       8280. kBytes
   fftplans  :       1377. kBytes
   grid      :       7520. kBytes
   one-center:        614. kBytes
   wavefun   :       6157. kBytes
 
     INWAV:  cpu time    0.0000: real time    0.0000
 Broyden mixing: mesh for mixing (old mesh)
   NGX = 27   NGY = 27   NGZ = 27
  (NGX  = 80   NGY  = 80   NGZ  = 80)
  gives a total of  19683 points

 initial charge density was supplied:
 charge density of overlapping atoms calculated
 number of electron     400.0000000 magnetization     100.0000000
 keeping initial charge density in first step


--------------------------------------------------------------------------------------------------------


 Maximum index for non-local projection operator          951
 Maximum index for augmentation-charges          190 (set IRDMAX)


--------------------------------------------------------------------------------------------------------


 First call to EWALD:  gamma=   0.174
 Maximum number of real-space cells 3x 3x 3
 Maximum number of reciprocal cells 3x 3x 3

    FEWALD:  cpu time    0.0072: real time    0.0073


--------------------------------------- Iteration      1(   1)  ---------------------------------------


    POTLOK:  cpu time    0.0552: real time    0.1788
    SETDIJ:  cpu time    0.0346: real time    0.0347
    EDDIAG:  cpu time    0.3453: real time    0.3472
  RMM-DIIS:  cpu time    0.4316: real time    0.4366
    ORTHCH:  cpu time    0.0974: real time    0.0980
       DOS:  cpu time    0.0004: real time    0.0004
    --------------------------------------------
      LOOP:  cpu time    0.9646: real time    1.0957

 eigenvalue-minimisations  :   608
 total energy-change (2. order) : 0.1387131E+04  (-0.7469124E+04)
 number of electron     400.0000000 magnetization     100.0000000
 augmentation part      400.0000000 magnetization     100.0000000

 Free energy of the ion-electron system (eV)
  ---------------------------------------------------
  alpha Z        PSCENC =       316.14514549
  Ewald energy   TEWEN  =    -14913.33829673
  -Hartree energ DENC   =       -98.00270506
  -exchange      EXHF   =         0.00000000
  -V(xc)+E(xc)   XCENC  =      -777.40007381
  PAW double counting   =      8803.41707833    -7043.47671478
  entropy T*S    EENTRO =        -0.02742978
  eigenvalues    EBANDS =      4793.68586188
  atomic energy  EATOM  =     10306.12861560
  Solvation  Ediel_sol  =         0.00000000
  ---------------------------------------------------
  free energy    TOTEN  =      1387.13148114 eV

  energy without entropy =     1387.15891093  energy(sigma->0) =     1387.14519604


--------------------------------------------------------------------------------------------------------




--------------------------------------- Iteration      1(   2)  ---------------------------------------


    EDDIAG:  cpu time    0.3386: real time    0.3409
  RMM-DIIS:  cpu time    0.4367: real time    0.4416
    ORTHCH:  cpu time    0.0972: real time    0.0978
       DOS:  cpu time    0.0003: real time    0.0003
    --------------------------------------------
      LOOP:  cpu time    0.8729: real time    0.8807

 eigenvalue-minimisations  :   608
 total energy-change (2. order) :-0.1375437E+04  (-0.1321260E+04)
 number of electron     400.0000000 magnetization     100.0000000
 augmentation part      400.0000000 magnetization     100.0000000

 Free energy of the ion-electron system (eV)
  ---------------------------------------------------
  alpha Z        PSCENC =       316.14514549
  Ewald energy   TEWEN  =    -14913.33829673
  -Hartree energ DENC   =       -98.00270506
  -exchange      EXHF   =         0.00000000
  -V(xc)+E(xc)   XCENC  =      -777.40007381
  PAW double counting   =      8803.41707833    -7043.47671478
  entropy T*S    EENTRO =        -0.02090819
  eigenvalues    EBANDS =      3418.24258995
  atomic energy  EATOM  =     10306.12861560
  Solvation  Ediel_sol  =         0.00000000
  ---------------------------------------------------
  free energy    TOTEN  =        11.69473081 eV

  energy without entropy =       11.71563900  energy(sigma->0) =       11.70518490


--------------------------------------------------------------------------------------------------------




--------------------------------------- Iteration      1(   3)  ---------------------------------------


    EDDIAG:  cpu time    0.3368: real time    0.3388
  RMM-DIIS:  cpu time    0.4345: real time    0.4394
    ORTHCH:  cpu time    0.0969: real time    0.0974
       DOS:  cpu time    0.0003: real time    0.0003
    --------------------------------------------
      LOOP:  cpu time    0.8685: real time    0.8760

 eigenvalue-minimisations  :   608
 total energy-change (2. order) :-0.2858556E+03  (-0.2800417E+03)
 number of electron     400.0000000 magnetization     100.0000000
 augmentation part      400.0000000 magnetization     100.0000000

 Free energy of the ion-electron system (eV)
  ---------------------------------------------------
  alpha Z        PSCENC =       316.14514549
  Ewald energy   TEWEN  =    -14913.33829673
  -Hartree energ DENC   =       -98.00270506
  -exchange      EXHF   =         0.00000000
  -V(xc)+E(xc)   XCENC  =      -777.40007381
  PAW double counting   =      8803.41707833    -7043.47671478
  entropy T*S    EENTRO =        -0.05181855
  eigenvalues    EBANDS =      3132.41788276
  atomic energy  EATOM  =     10306.12861560
  Solvation  Ediel_sol  =         0.00000000
  ---------------------------------------------------
  free energy    TOTEN  =      -274.16088674 eV

  energy without entropy =     -274.10906820  energy(sigma->0) =     -274.13497747


--------------------------------------------------------------------------------------------------------




--------------------------------------- Iteration      1(   4)  ---------------------------------------


    EDDIAG:  cpu time    0.3368: real time    0.3389
  RMM-DIIS:  cpu time    0.4372: real time    0.4422
    ORTHCH:  cpu time    0.0974: real time    0.0980
       DOS:  cpu time    0.0003: real time    0.0003
    --------------------------------------------
      LOOP:  cpu time    0.8717: real time    0.8794

 eigenvalue-minimisations  :   608
 total energy-change (2. order) :-0.8079683E+02  (-0.6760818E+02)
 number of electron     400.0000000 magnetization     100.0000000
 augmentation part      400.0000000 magnetization     100.0000000

 Free energy of the ion-electron system (eV)
  ---------------------------------------------------
  alpha Z        PSCENC =       316.14514549
  Ewald energy   TEWEN  =    -14913.33829673
  -Hartree energ DENC   =       -98.00270506
  -exchange      EXHF   =         0.00000000
  -V(xc)+E(xc)   XCENC  =      -777.40007381
  PAW double counting   =      8803.41707833    -7043.47671478
  entropy T*S    EENTRO =        -0.03758071
  eigenvalues    EBANDS =      3051.60681162
  atomic energy  EATOM  =     10306.12861560
  Solvation  Ediel_sol  =         0.00000000
  ---------------------------------------------------
  free energy    TOTEN  =      -354.95772005 eV

  energy without entropy =     -354.92013934  energy(sigma->0) =     -354.93892969


--------------------------------------------------------------------------------------------------------




--------------------------------------- Iteration      1(   5)  ---------------------------------------


    EDDIAG:  cpu time    0.3365: real time    0.3389
  RMM-DIIS:  cpu time    0.4385: real time    0.4437
    ORTHCH:  cpu time    0.0974: real time    0.0980
       DOS:  cpu time    0.0003: real time    0.0003
    --------------------------------------------
      LOOP:  cpu time    0.8727: real time    0.8810

 eigenvalue-minimisations  :   608
 total energy-change (2. order) :-0.2607660E+02  (-0.2115302E+02)
 number of electron     400.0000000 magnetization     100.0000000
 augmentation part      400.0000000 magnetization     100.0000000

 Free energy of the ion-electron system (eV)
  ---------------------------------------------------
  alpha Z        PSCENC =       316.14514549
  Ewald energy   TEWEN  =    -14913.33829673
  -Hartree energ DENC   =       -98.00270506
  -exchange      EXHF   =         0.00000000
  -V(xc)+E(xc)   XCENC  =      -777.40007381
  PAW double counting   =      8803.41707833    -7043.47671478
  entropy T*S    EENTRO =        -0.06313249
  eigenvalues    EBANDS =      3025.55576113
  atomic energy  EATOM  =     10306.12861560
  Solvation  Ediel_sol  =         0.00000000
  ---------------------------------------------------
  free energy    TOTEN  =      -381.03432232 eV

  energy without entropy =     -380.97118982  energy(sigma->0) =     -381.00275607


--------------------------------------------------------------------------------------------------------




--------------------------------------- Iteration      1(   6)  ---------------------------------------


    EDDIAG:  cpu time    0.3368: real time    0.3388
  RMM-DIIS:  cpu time    0.4399: real time    0.4448
    ORTHCH:  cpu time    0.0970: real time    0.0976
       DOS:  cpu time    0.0003: real time    0.0003
    --------------------------------------------
      LOOP:  cpu time    0.8740: real time    0.8816

 eigenvalue-minimisations  :   608
 total energy-change (2. order) :-0.9823655E+01  (-0.7506721E+01)
 number of electron     400.0000000 magnetization     100.0000000
 augmentation part      400.0000000 magnetization     100.0000000

 Free energy of the ion-electron system (eV)
  ---------------------------------------------------
  alpha Z        PSCENC =       316.14514549
  Ewald energy   TEWEN  =    -14913.33829673
  -Hartree energ DENC   =       -98.00270506
  -exchange      EXHF   =         0.00000000
  -V(xc)+E(xc)   XCENC  =      -777.40007381
  PAW double counting   =      8803.41707833    -7043.47671478
  entropy T*S    EENTRO =        -0.04131527
  eigenvalues    EBANDS =      3015.71028931
  atomic energy  EATOM  =     10306.12861560
  Solvation  Ediel_sol  =         0.00000000
  ---------------------------------------------------
  free energy    TOTEN  =      -390.85797692 eV

  energy without entropy =     -390.81666164  energy(sigma->0) =     -390.83731928


--------------------------------------------------------------------------------------------------------




--------------------------------------- Iteration      1(   7)  ---------------------------------------


    EDDIAG:  cpu time    0.3363: real time    0.3386
  RMM-DIIS:  cpu time    0.4339: real time    0.4390
    ORTHCH:  cpu time    0.0971: real time    0.0977
       DOS:  cpu time    0.0003: real time    0.0003
    --------------------------------------------
      LOOP:  cpu time    0.8676: real time    0.8757

 eigenvalue-minimisations  :   608
 total energy-change (2. order) :-0.3545549E+01  (-0.2919606E+01)
 number of electron     400.0000000 magnetization     100.0000000
 augmentation part      400.0000000 magnetization     100.0000000

 Free energy of the ion-electron system (eV)
  ---------------------------------------------------
  alpha Z        PSCENC =       316.14514549
  Ewald energy   TEWEN  =    -14913.33829673
  -Hartree energ DENC   =       -98.00270506
  -exchange      EXHF   =         0.00000000
  -V(xc)+E(xc)   XCENC  =      -777.40007381
  PAW double counting   =      8803.41707833    -7043.47671478
  entropy T*S    EENTRO =        -0.04389458
  eigenvalues    EBANDS =      3012.16731938
  atomic energy  EATOM  =     10306.12861560
  Solvation  Ediel_sol  =         0.00000000
  ---------------------------------------------------
  free energy    TOTEN  =      -394.40352616 eV

  energy without entropy =     -394.35963158  energy(sigma->0) =     -394.38157887


--------------------------------------------------------------------------------------------------------




--------------------------------------- Iteration      1(   8)  ---------------------------------------


    EDDIAG:  cpu time    0.3361: real time    0.3383
  RMM-DIIS:  cpu time    0.4407: real time    0.4459
    ORTHCH:  cpu time    0.0972: real time    0.0978
       DOS:  cpu time    0.0003: real time    0.0003
    --------------------------------------------
      LOOP:  cpu time    0.8744: real time    0.8823

 eigenvalue-minimisations  :   608
 total energy-change (2. order) :-0.1440335E+01  (-0.1173648E+01)
 number of electron     400.0000000 magnetization     100.0000000
 augmentation part      400.0000000 magnetization     100.0000000

 Free energy of the ion-electron system (eV)
  ---------------------------------------------------
  alpha Z        PSCENC =       316.14514549
  Ewald energy   TEWEN  =    -14913.33829673
  -Hartree energ DENC   =       -98.00270506
  -exchange      EXHF   =         0.00000000
  -V(xc)+E(xc)   XCENC  =      -777.40007381
  PAW double counting   =      8803.41707833    -7043.47671478
  entropy T*S    EENTRO =        -0.04748500
  eigenvalues    EBANDS =      3010.73057461
  atomic energy  EATOM  =     10306.12861560
  Solvation  Ediel_sol  =         0.00000000
  ---------------------------------------------------
  free energy    TOTEN  =      -395.84386134 eV

  energy without entropy =     -395.79637634  energy(sigma->0) =     -395.82011884


--------------------------------------------------------------------------------------------------------




--------------------------------------- Iteration      1(   9)  ---------------------------------------


    EDDIAG:  cpu time    0.3367: real time    0.3389
  RMM-DIIS:  cpu time    0.9698: real time    0.9819
    ORTHCH:  cpu time    0.0976: real time    0.0982
       DOS:  cpu time    0.0003: real time    0.0003
    --------------------------------------------
      LOOP:  cpu time    1.4044: real time    1.4194

 eigenvalue-minimisations  :  1500
 total energy-change (2. order) :-0.8426381E+00  (-0.7690123E+00)
 number of electron     400.0000000 magnetization     100.0000000
 augmentation part      400.0000000 magnetization     100.0000000

 Free energy of the ion-electron system (eV)
  ---------------------------------------------------
  alpha Z        PSCENC =       316.14514549
  Ewald energy   TEWEN  =    -14913.33829673
  -Hartree energ DENC   =       -98.00270506
  -exchange      EXHF   =         0.00000000
  -V(xc)+E(xc)   XCENC  =      -777.40007381
  PAW double counting   =      8803.41707833    -7043.47671478
  entropy T*S    EENTRO =        -0.05035811
  eigenvalues    EBANDS =      3009.89080961
  atomic energy  EATOM  =     10306.12861560
  Solvation  Ediel_sol  =         0.00000000
  ---------------------------------------------------
  free energy    TOTEN  =      -396.68649945 eV

  energy without entropy =     -396.63614134  energy(sigma->0) =     -396.66132039


--------------------------------------------------------------------------------------------------------




--------------------------------------- Iteration      1(  10)  ---------------------------------------


    EDDIAG:  cpu time    0.3361: real time    0.3383
  RMM-DIIS:  cpu time    0.9143: real time    0.9259
    ORTHCH:  cpu time    0.0972: real time    0.0979
       DOS:  cpu time    0.0003: real time    0.0003
    --------------------------------------------
      LOOP:  cpu time    1.3480: real time    1.3624

 eigenvalue-minimisations  :  1433
 total energy-change (2. order) :-0.1088284E+00  (-0.5457716E-01)
 number of electron     400.0000000 magnetization     100.0000000
 augmentation part      400.0000000 magnetization     100.0000000

 Free energy of the ion-electron system (eV)
  ---------------------------------------------------
  alpha Z        PSCENC =       316.14514549
  Ewald energy   TEWEN  =    -14913.33829673
  -Hartree energ DENC   =       -98.00270506
  -exchange      EXHF   =         0.00000000
  -V(xc)+E(xc)   XCENC  =      -777.40007381
  PAW double counting   =      8803.41707833    -7043.47671478
  entropy T*S    EENTRO =        -0.04987161
  eigenvalues    EBANDS =      3009.78149469
  atomic energy  EATOM  =     10306.12861560
  Solvation  Ediel_sol  =         0.00000000
  ---------------------------------------------------
  free energy    TOTEN  =      -396.79532787 eV

  energy without entropy =     -396.74545626  energy(sigma->0) =     -396.77039207


--------------------------------------------------------------------------------------------------------




--------------------------------------- Iteration      1(  11)  ---------------------------------------


    EDDIAG:  cpu time    0.3368: real time    0.3389
  RMM-DIIS:  cpu time    0.8882: real time    0.8993
    ORTHCH:  cpu time    0.0969: real time    0.0976
       DOS:  cpu time    0.0003: real time    0.0003
    --------------------------------------------
      LOOP:  cpu time    1.3223: real time    1.3362

 eigenvalue-minimisations  :  1342
 total energy-change (2. order) :-0.2392837E-02  (-0.1670145E-02)
 number of electron     400.0000000 magnetization     100.0000000
 augmentation part      400.0000000 magnetization     100.0000000

 Free energy of the ion-electron system (eV)
  ---------------------------------------------------
  alpha Z        PSCENC =       316.14514549
  Ewald energy   TEWEN  =    -14913.33829673
  -Hartree energ DENC   =       -98.00270506
  -exchange      EXHF   =         0.00000000
  -V(xc)+E(xc)   XCENC  =      -777.40007381
  PAW double counting   =      8803.41707833    -7043.47671478
  entropy T*S    EENTRO =        -0.04984897
  eigenvalues    EBANDS =      3009.77907921
  atomic energy  EATOM  =     10306.12861560
  Solvation  Ediel_sol  =         0.00000000
  ---------------------------------------------------
  free energy    TOTEN  =      -396.79772071 eV

  energy without entropy =     -396.74787174  energy(sigma->0) =     -396.77279623


--------------------------------------------------------------------------------------------------------




--------------------------------------- Iteration      1(  12)  ---------------------------------------


    EDDIAG:  cpu time    0.3366: real time    0.3387
  RMM-DIIS:  cpu time    0.7600: real time    0.7698
    ORTHCH:  cpu time    0.0979: real time    0.0985
       DOS:  cpu time    0.0003: real time    0.0003
    CHARGE:  cpu time    0.0442: real time    0.0444
    MIXING:  cpu time    0.0010: real time    0.0010
    --------------------------------------------
      LOOP:  cpu time    1.2401: real time    1.2529

 eigenvalue-minimisations  :  1093
 total energy-change (2. order) :-0.1499785E-04  (-0.1516125E-04)
 number of electron     400.0000025 magnetization      67.4097665
 augmentation part      -23.5500762 magnetization      40.8193041

 Broyden mixing:
  rms(total) = 0.62338E+01    rms(broyden)= 0.62338E+01
  rms(prec ) = 0.64556E+01
  weight for this iteration     100.00

 Free energy of the ion-electron system (eV)
  ---------------------------------------------------
  alpha Z        PSCENC =       316.14514549
  Ewald energy   TEWEN  =    -14913.33829673
  -Hartree energ DENC   =       -98.00270506
  -exchange      EXHF   =         0.00000000
  -V(xc)+E(xc)   XCENC  =      -777.40007381
  PAW double counting   =      8803.41707833    -7043.47671478
  entropy T*S    EENTRO =        -0.04984900
  eigenvalues    EBANDS =      3009.77906425
  atomic energy  EATOM  =     10306.12861560
  Solvation  Ediel_sol  =         0.00000000
  ---------------------------------------------------
  free energy    TOTEN  =      -396.79773571 eV

  energy without entropy =     -396.74788671  energy(sigma->0) =     -396.77281121


--------------------------------------------------------------------------------------------------------




--------------------------------------- Iteration      1(  13)  ---------------------------------------


    POTLOK:  cpu time    0.0526: real time    0.0531
    SETDIJ:  cpu time    0.0349: real time    0.0350
    EDDIAG:  cpu time    0.3352: real time    0.3372
  RMM-DIIS:  cpu time    0.8766: real time    0.8876
    ORTHCH:  cpu time    0.0985: real time    0.0992
       DOS:  cpu time    0.0004: real time    0.0004
    CHARGE:  cpu time    0.0451: real time    0.0453
    MIXING:  cpu time    0.0012: real time    0.0012
    --------------------------------------------
      LOOP:  cpu time    1.4446: real time    1.4591

 eigenvalue-minimisations  :  1341
 total energy-change (2. order) :-0.4474150E+01  (-0.1540579E+01)
 number of electron     400.0000031 magnetization      32.9036380
 augmentation part      -23.5651237 magnetization      14.3675592

 Broyden mixing:
  rms(total) = 0.37615E+01    rms(broyden)= 0.37615E+01
  rms(prec ) = 0.38545E+01
  weight for this iteration     100.00

 eigenvalues of (default mixing * dielectric matrix)
  average eigenvalue GAMMA=   1.2579
  1.2579

 Free energy of the ion-electron system (eV)
  ---------------------------------------------------
  alpha Z        PSCENC =       316.14514549
  Ewald energy   TEWEN  =    -14913.33829673
  -Hartree energ DENC   =      -122.25014276
  -exchange      EXHF   =         0.00000000
  -V(xc)+E(xc)   XCENC  =      -776.66526588
  PAW double counting   =     31184.34712500   -29430.80628127
  entropy T*S    EENTRO =        -0.03569859
  eigenvalues    EBANDS =      3035.20291380
  atomic energy  EATOM  =     10306.12861560
  Solvation  Ediel_sol  =         0.00000000
  ---------------------------------------------------
  free energy    TOTEN  =      -401.27188533 eV

  energy without entropy =     -401.23618675  energy(sigma->0) =     -401.25403604


--------------------------------------------------------------------------------------------------------




--------------------------------------- Iteration      1(  14)  ---------------------------------------


    POTLOK:  cpu time    0.0525: real time    0.0528
    SETDIJ:  cpu time    0.0349: real time    0.0350
    EDDIAG:  cpu time    0.3361: real time    0.3383
  RMM-DIIS:  cpu time    0.8843: real time    0.8953
    ORTHCH:  cpu time    0.0990: real time    0.0996
       DOS:  cpu time    0.0004: real time    0.0004
    CHARGE:  cpu time    0.0450: real time    0.0452
    MIXING:  cpu time    0.0013: real time    0.0013
    --------------------------------------------
      LOOP:  cpu time    1.4534: real time    1.4678

 eigenvalue-minimisations  :  1343
 total energy-change (2. order) :-0.7601967E+01  (-0.6194434E+00)
 number of electron     400.0000027 magnetization      13.6866679
 augmentation part      -23.6395545 magnetization       5.2001475

 Broyden mixing:
  rms(total) = 0.17641E+01    rms(broyden)= 0.17641E+01
  rms(prec ) = 0.20504E+01
  weight for this iteration     100.00

 eigenvalues of (default mixing * dielectric matrix)
  average eigenvalue GAMMA=   1.4773
  2.3692  0.5854

 Free energy of the ion-electron system (eV)
  ---------------------------------------------------
  alpha Z        PSCENC =       316.14514549
  Ewald energy   TEWEN  =    -14913.33829673
  -Hartree energ DENC   =      -131.50802475
  -exchange      EXHF   =         0.00000000
  -V(xc)+E(xc)   XCENC  =      -772.36667411
  PAW double counting   =     66909.26216211   -65161.14274764
  entropy T*S    EENTRO =        -0.05732574
  eigenvalues    EBANDS =      3038.00329360
  atomic energy  EATOM  =     10306.12861560
  Solvation  Ediel_sol  =         0.00000000
  ---------------------------------------------------
  free energy    TOTEN  =      -408.87385218 eV

  energy without entropy =     -408.81652644  energy(sigma->0) =     -408.84518931


--------------------------------------------------------------------------------------------------------




--------------------------------------- Iteration      1(  15)  ---------------------------------------


    POTLOK:  cpu time    0.0525: real time    0.0528
    SETDIJ:  cpu time    0.0349: real time    0.0350
    EDDIAG:  cpu time    0.3361: real time    0.3382
  RMM-DIIS:  cpu time    0.9044: real time    0.9160
    ORTHCH:  cpu time    0.0986: real time    0.0992
       DOS:  cpu time    0.0004: real time    0.0004
    CHARGE:  cpu time    0.0438: real time    0.0440
    MIXING:  cpu time    0.0014: real time    0.0014
    --------------------------------------------
      LOOP:  cpu time    1.4720: real time    1.4871

 eigenvalue-minimisations  :  1383
 total energy-change (2. order) :-0.7435470E+00  (-0.1501224E+00)
 number of electron     400.0000032 magnetization       9.5662147
 augmentation part      -23.7005622 magnetization       5.0399186

 Broyden mixing:
  rms(total) = 0.37121E+00    rms(broyden)= 0.37120E+00
  rms(prec ) = 0.48913E+00
  weight for this iteration     100.00

 eigenvalues of (default mixing * dielectric matrix)
  average eigenvalue GAMMA=   1.3097
  2.3837  0.9451  0.6005

 Free energy of the ion-electron system (eV)
  ---------------------------------------------------
  alpha Z        PSCENC =       316.14514549
  Ewald energy   TEWEN  =    -14913.33829673
  -Hartree energ DENC   =      -139.14749617
  -exchange      EXHF   =         0.00000000
  -V(xc)+E(xc)   XCENC  =      -769.56499478
  PAW double counting   =     88025.92143717   -86281.02153533
  entropy T*S    EENTRO =        -0.04668420
  eigenvalues    EBANDS =      3045.30640982
  atomic energy  EATOM  =     10306.12861560
  Solvation  Ediel_sol  =         0.00000000
  ---------------------------------------------------
  free energy    TOTEN  =      -409.61739913 eV

  energy without entropy =     -409.57071493  energy(sigma->0) =     -409.59405703


--------------------------------------------------------------------------------------------------------




--------------------------------------- Iteration      1(  16)  ---------------------------------------


    POTLOK:  cpu time    0.0524: real time    0.0528
    SETDIJ:  cpu time    0.0349: real time    0.0350
    EDDIAG:  cpu time    0.3363: real time    0.3385
  RMM-DIIS:  cpu time    0.9048: real time    0.9159
    ORTHCH:  cpu time    0.0982: real time    0.0988
       DOS:  cpu time    0.0003: real time    0.0003
    CHARGE:  cpu time    0.0438: real time    0.0440
    MIXING:  cpu time    0.0015: real time    0.0015
    --------------------------------------------
      LOOP:  cpu time    1.4722: real time    1.4869

 eigenvalue-minimisations  :  1398
 total energy-change (2. order) :-0.1361230E+00  (-0.4013845E-01)
 number of electron     400.0000031 magnetization       6.1855651
 augmentation part      -23.7147787 magnetization       2.7897085

 Broyden mixing:
  rms(total) = 0.24795E+00    rms(broyden)= 0.24795E+00
  rms(prec ) = 0.28484E+00
  weight for this iteration     100.00

 eigenvalues of (default mixing * dielectric matrix)
  average eigenvalue GAMMA=   1.3470
  2.3569  1.6514  0.7602  0.6196

 Free energy of the ion-electron system (eV)
  ---------------------------------------------------
  alpha Z        PSCENC =       316.14514549
  Ewald energy   TEWEN  =    -14913.33829673
  -Hartree energ DENC   =      -138.64919616
  -exchange      EXHF   =         0.00000000
  -V(xc)+E(xc)   XCENC  =      -769.30467933
  PAW double counting   =     88856.85995429   -87112.24727328
  entropy T*S    EENTRO =        -0.05210231
  eigenvalues    EBANDS =      3044.70431031
  atomic energy  EATOM  =     10306.12861560
  Solvation  Ediel_sol  =         0.00000000
  ---------------------------------------------------
  free energy    TOTEN  =      -409.75352212 eV

  energy without entropy =     -409.70141981  energy(sigma->0) =     -409.72747096


--------------------------------------------------------------------------------------------------------




--------------------------------------- Iteration      1(  17)  ---------------------------------------


    POTLOK:  cpu time    0.0524: real time    0.0528
    SETDIJ:  cpu time    0.0349: real time    0.0350
    EDDIAG:  cpu time    0.3361: real time    0.3382
  RMM-DIIS:  cpu time    0.9336: real time    0.9468
    ORTHCH:  cpu time    0.0988: real time    0.1143
       DOS:  cpu time    0.0004: real time    0.0004
    CHARGE:  cpu time    0.0438: real time    0.0440
    MIXING:  cpu time    0.0016: real time    0.0016
    --------------------------------------------
      LOOP:  cpu time    1.5016: real time    1.5331

 eigenvalue-minimisations  :  1431
 total energy-change (2. order) :-0.8620973E-01  (-0.1130019E-01)
 number of electron     400.0000031 magnetization       3.3888520
 augmentation part      -23.7250875 magnetization       0.8790729

 Broyden mixing:
  rms(total) = 0.14476E+00    rms(broyden)= 0.14476E+00
  rms(prec ) = 0.16286E+00
  weight for this iteration     100.00

 eigenvalues of (default mixing * dielectric matrix)
  average eigenvalue GAMMA=   1.3672
  2.3239  2.2789  0.9052  0.6116  0.7163

 Free energy of the ion-electron system (eV)
  ---------------------------------------------------
  alpha Z        PSCENC =       316.14514549
  Ewald energy   TEWEN  =    -14913.33829673
  -Hartree energ DENC   =      -137.84286636
  -exchange      EXHF   =         0.00000000
  -V(xc)+E(xc)   XCENC  =      -769.16455507
  PAW double counting   =     88388.09257974   -86643.62642915
  entropy T*S    EENTRO =        -0.05021354
  eigenvalues    EBANDS =      3043.81628818
  atomic energy  EATOM  =     10306.12861560
  Solvation  Ediel_sol  =         0.00000000
  ---------------------------------------------------
  free energy    TOTEN  =      -409.83973184 eV

  energy without entropy =     -409.78951830  energy(sigma->0) =     -409.81462507


--------------------------------------------------------------------------------------------------------




--------------------------------------- Iteration      1(  18)  ---------------------------------------


    POTLOK:  cpu time    0.0525: real time    0.0528
    SETDIJ:  cpu time    0.0350: real time    0.0350
    EDDIAG:  cpu time    0.3377: real time    0.3398
  RMM-DIIS:  cpu time    0.9151: real time    0.9265
    ORTHCH:  cpu time    0.0986: real time    0.0992
       DOS:  cpu time    0.0003: real time    0.0003
    CHARGE:  cpu time    0.0436: real time    0.0438
    MIXING:  cpu time    0.0017: real time    0.0017
    --------------------------------------------
      LOOP:  cpu time    1.4845: real time    1.4992

 eigenvalue-minimisations  :  1406
 total energy-change (2. order) :-0.4698911E-01  (-0.3789565E-02)
 number of electron     400.0000031 magnetization       1.8139432
 augmentation part      -23.7310803 magnetization       0.0613075

 Broyden mixing:
  rms(total) = 0.70753E-01    rms(broyden)= 0.70751E-01
  rms(prec ) = 0.81828E-01
  weight for this iteration     100.00

 eigenvalues of (default mixing * dielectric matrix)
  average eigenvalue GAMMA=   1.3770
  2.7740  2.3393  1.1104  0.8546  0.5919  0.5919

 Free energy of the ion-electron system (eV)
  ---------------------------------------------------
  alpha Z        PSCENC =       316.14514549
  Ewald energy   TEWEN  =    -14913.33829673
  -Hartree energ DENC   =      -137.49177961
  -exchange      EXHF   =         0.00000000
  -V(xc)+E(xc)   XCENC  =      -769.01928076
  PAW double counting   =     87971.41625918   -86227.07289430
  entropy T*S    EENTRO =        -0.05111250
  eigenvalues    EBANDS =      3043.39662267
  atomic energy  EATOM  =     10306.12861560
  Solvation  Ediel_sol  =         0.00000000
  ---------------------------------------------------
  free energy    TOTEN  =      -409.88672096 eV

  energy without entropy =     -409.83560846  energy(sigma->0) =     -409.86116471


--------------------------------------------------------------------------------------------------------




--------------------------------------- Iteration      1(  19)  ---------------------------------------


    POTLOK:  cpu time    0.0524: real time    0.0527
    SETDIJ:  cpu time    0.0350: real time    0.0351
    EDDIAG:  cpu time    0.3379: real time    0.3399
  RMM-DIIS:  cpu time    0.9309: real time    0.9423
    ORTHCH:  cpu time    0.0988: real time    0.0994
       DOS:  cpu time    0.0004: real time    0.0004
    CHARGE:  cpu time    0.0436: real time    0.0438
    MIXING:  cpu time    0.0018: real time    0.0018
    --------------------------------------------
      LOOP:  cpu time    1.5008: real time    1.5154

 eigenvalue-minimisations  :  1424
 total energy-change (2. order) :-0.1143799E-01  (-0.1157933E-02)
 number of electron     400.0000031 magnetization       1.2078273
 augmentation part      -23.7340487 magnetization       0.0114942

 Broyden mixing:
  rms(total) = 0.30292E-01    rms(broyden)= 0.30289E-01
  rms(prec ) = 0.36351E-01
  weight for this iteration     100.00

 eigenvalues of (default mixing * dielectric matrix)
  average eigenvalue GAMMA=   1.3501
  2.9981  2.3519  1.1244  1.0253  0.7912  0.6129  0.5466

 Free energy of the ion-electron system (eV)
  ---------------------------------------------------
  alpha Z        PSCENC =       316.14514549
  Ewald energy   TEWEN  =    -14913.33829673
  -Hartree energ DENC   =      -137.74346823
  -exchange      EXHF   =         0.00000000
  -V(xc)+E(xc)   XCENC  =      -768.92189528
  PAW double counting   =     87774.79521995   -86030.52330019
  entropy T*S    EENTRO =        -0.05678805
  eigenvalues    EBANDS =      3043.61660850
  atomic energy  EATOM  =     10306.12861560
  Solvation  Ediel_sol  =         0.00000000
  ---------------------------------------------------
  free energy    TOTEN  =      -409.89815895 eV

  energy without entropy =     -409.84137090  energy(sigma->0) =     -409.86976492


--------------------------------------------------------------------------------------------------------




--------------------------------------- Iteration      1(  20)  ---------------------------------------


    POTLOK:  cpu time    0.0524: real time    0.0528
    SETDIJ:  cpu time    0.0350: real time    0.0351
    EDDIAG:  cpu time    0.3373: real time    0.3393
  RMM-DIIS:  cpu time    0.9288: real time    0.9404
    ORTHCH:  cpu time    0.0988: real time    0.0994
       DOS:  cpu time    0.0004: real time    0.0004
    CHARGE:  cpu time    0.0437: real time    0.0439
    MIXING:  cpu time    0.0020: real time    0.0020
    --------------------------------------------
      LOOP:  cpu time    1.4984: real time    1.5132

 eigenvalue-minimisations  :  1433
 total energy-change (2. order) :-0.2604063E-02  (-0.4050871E-03)
 number of electron     400.0000031 magnetization       0.8732602
 augmentation part      -23.7341202 magnetization      -0.0121696

 Broyden mixing:
  rms(total) = 0.16416E-01    rms(broyden)= 0.16413E-01
  rms(prec ) = 0.21942E-01
  weight for this iteration     100.00

 eigenvalues of (default mixing * dielectric matrix)
  average eigenvalue GAMMA=   1.3901
  3.3577  2.3000  1.6205  1.1581  0.8642  0.6788  0.6148  0.5267

 Free energy of the ion-electron system (eV)
  ---------------------------------------------------
  alpha Z        PSCENC =       316.14514549
  Ewald energy   TEWEN  =    -14913.33829673
  -Hartree energ DENC   =      -137.81054902
  -exchange      EXHF   =         0.00000000
  -V(xc)+E(xc)   XCENC  =      -768.90537289
  PAW double counting   =     87629.97887233   -85885.72125655
  entropy T*S    EENTRO =        -0.06095585
  eigenvalues    EBANDS =      3043.68303462
  atomic energy  EATOM  =     10306.12861560
  Solvation  Ediel_sol  =         0.00000000
  ---------------------------------------------------
  free energy    TOTEN  =      -409.90076301 eV

  energy without entropy =     -409.83980716  energy(sigma->0) =     -409.87028509


--------------------------------------------------------------------------------------------------------




--------------------------------------- Iteration      1(  21)  ---------------------------------------


    POTLOK:  cpu time    0.0524: real time    0.0527
    SETDIJ:  cpu time    0.0349: real time    0.0350
    EDDIAG:  cpu time    0.3370: real time    0.3390
  RMM-DIIS:  cpu time    0.9138: real time    0.9362
    ORTHCH:  cpu time    0.0993: real time    0.0999
       DOS:  cpu time    0.0004: real time    0.0004
    CHARGE:  cpu time    0.0436: real time    0.0438
    MIXING:  cpu time    0.0022: real time    0.0022
    --------------------------------------------
      LOOP:  cpu time    1.4835: real time    1.5091

 eigenvalue-minimisations  :  1410
 total energy-change (2. order) :-0.9099852E-03  (-0.1492816E-03)
 number of electron     400.0000031 magnetization       0.5774768
 augmentation part      -23.7341566 magnetization      -0.0881425

 Broyden mixing:
  rms(total) = 0.10942E-01    rms(broyden)= 0.10940E-01
  rms(prec ) = 0.12715E-01
  weight for this iteration     100.00

 eigenvalues of (default mixing * dielectric matrix)
  average eigenvalue GAMMA=   1.4039
  3.7355  2.1188  2.1188  1.1596  0.9442  0.8097  0.5205  0.6139  0.6139

 Free energy of the ion-electron system (eV)
  ---------------------------------------------------
  alpha Z        PSCENC =       316.14514549
  Ewald energy   TEWEN  =    -14913.33829673
  -Hartree energ DENC   =      -137.83346099
  -exchange      EXHF   =         0.00000000
  -V(xc)+E(xc)   XCENC  =      -768.90250914
  PAW double counting   =     87580.80715450   -85836.55339809
  entropy T*S    EENTRO =        -0.06258188
  eigenvalues    EBANDS =      3043.70765824
  atomic energy  EATOM  =     10306.12861560
  Solvation  Ediel_sol  =         0.00000000
  ---------------------------------------------------
  free energy    TOTEN  =      -409.90167300 eV

  energy without entropy =     -409.83909112  energy(sigma->0) =     -409.87038206


--------------------------------------------------------------------------------------------------------




--------------------------------------- Iteration      1(  22)  ---------------------------------------


    POTLOK:  cpu time    0.0524: real time    0.0528
    SETDIJ:  cpu time    0.0350: real time    0.0351
    EDDIAG:  cpu time    0.3368: real time    0.3388
  RMM-DIIS:  cpu time    0.9026: real time    0.9136
    ORTHCH:  cpu time    0.0988: real time    0.0994
       DOS:  cpu time    0.0004: real time    0.0004
    CHARGE:  cpu time    0.0437: real time    0.0439
    MIXING:  cpu time    0.0024: real time    0.0024
[...]
   -.907E+01 0.164E+02 -.163E+02   0.817E+01 -.133E+02 0.112E+02   0.454E+01 -.654E+01 0.951E+01   0.493E-03 0.340E-03 -.234E-02
   -.540E+01 -.126E+02 0.569E+01   0.424E+01 0.129E+02 -.548E+01   0.208E+01 -.840E-01 -.112E+01   0.417E-03 -.519E-03 0.299E-04
   0.841E+00 0.113E+02 -.112E+02   -.226E+00 -.114E+02 0.105E+02   -.431E+00 -.304E+00 0.245E+01   -.958E-03 -.363E-03 -.161E-02
   0.106E+02 0.512E+01 -.404E+01   -.960E+01 -.449E+01 0.413E+01   -.305E+01 -.203E+01 0.159E+00   0.739E-03 -.322E-03 -.600E-03
   -.680E+01 -.110E+02 0.510E+01   0.591E+01 0.859E+01 -.560E+01   0.214E+01 0.356E+01 0.954E+00   -.648E-03 0.601E-03 -.103E-02
   0.164E+02 0.116E+02 0.798E+01   -.141E+02 -.105E+02 -.889E+01   -.336E+01 -.288E+01 0.513E+00   -.125E-03 -.728E-03 -.286E-03
   -.163E+01 0.757E+01 -.751E+01   -.380E+00 -.831E+01 0.789E+01   0.246E+01 0.565E+00 0.495E+00   0.480E-03 0.340E-03 -.669E-03
   0.651E+01 -.157E+01 -.937E+01   -.603E+01 0.878E+00 0.945E+01   -.189E+00 0.124E+01 0.139E+01   -.294E-03 -.822E-03 0.224E-02
   -.480E+01 0.269E+02 -.190E+02   0.355E+01 -.264E+02 0.188E+02   0.205E+01 -.301E+01 0.255E+01   0.171E-03 0.830E-05 -.917E-03
   -.608E+01 0.125E+01 0.640E+01   0.560E+01 -.930E+00 -.697E+01   0.253E+01 -.106E+01 0.362E+00   0.884E-03 0.264E-03 -.324E-03
   -.262E+00 0.667E+00 0.268E+02   -.886E+00 0.635E-01 -.257E+02   0.109E+01 -.159E+01 -.392E+01   0.635E-03 0.137E-03 0.124E-02
   0.329E+00 -.726E+01 -.976E+01   -.305E+00 0.736E+01 0.924E+01   0.745E+00 -.215E+00 0.151E+01   0.128E-03 -.554E-03 0.200E-02
   0.387E+00 0.281E+01 0.576E+01   0.929E+00 -.200E+01 -.383E+01   -.166E+01 -.164E+01 -.361E+01   0.316E-03 0.336E-03 0.101E-02
   0.412E+01 0.191E+01 0.410E+01   -.457E+01 -.304E+01 -.384E+01   -.478E+00 0.105E+01 -.103E+00   0.689E-03 0.519E-04 -.211E-02
   0.112E+01 -.401E+01 0.995E-01   -.184E+01 0.464E+01 -.167E+01   -.796E+00 -.715E+00 0.266E+01   0.272E-03 0.500E-04 -.930E-03
   0.131E+02 0.186E+02 -.152E+02   -.133E+02 -.186E+02 0.149E+02   -.570E+00 -.181E+01 0.118E+01   -.208E-04 0.468E-03 0.194E-02
   -.139E+02 -.318E+01 -.170E+02   0.131E+02 0.331E+01 0.161E+02   0.338E+01 -.667E+00 0.435E+01   -.270E-03 -.973E-05 0.131E-02
   0.814E+01 -.161E+02 0.147E+02   -.685E+01 0.145E+02 -.146E+02   -.171E+01 0.306E+01 -.311E+01   -.326E-03 -.598E-04 -.154E-02
   -.133E+02 -.214E+02 0.220E+01   0.140E+02 0.214E+02 -.277E+01   -.106E+01 0.128E+01 0.435E+00   0.219E-03 -.111E-03 -.678E-03
   -.218E+01 0.958E+01 0.142E+02   0.182E+01 -.884E+01 -.130E+02   -.101E+00 -.260E+01 -.244E+01   -.445E-03 -.681E-03 0.136E-02
   0.691E+01 0.559E+01 -.606E+01   -.650E+01 -.581E+01 0.599E+01   -.238E+01 -.252E+01 -.795E-01   0.329E-05 -.275E-03 0.242E-02
   -.197E+01 0.883E+01 0.227E+02   0.296E+01 -.922E+01 -.233E+02   -.695E+00 0.687E+00 -.198E-01   -.375E-03 0.654E-03 0.551E-03
   -.113E+02 -.427E+01 -.171E+02   0.932E+01 0.358E+01 0.165E+02   0.253E+01 0.220E+01 0.155E+01   -.292E-03 0.687E-03 0.227E-02
   0.430E+01 -.220E+02 -.600E+01   -.478E+01 0.207E+02 0.805E+01   0.108E+00 0.353E+01 -.180E+01   -.221E-03 0.518E-03 -.204E-02
   0.153E+02 -.108E+01 0.252E+01   -.142E+02 0.251E+01 -.160E+01   -.160E+01 -.148E+01 -.124E+01   -.314E-03 -.628E-03 -.213E-02
   0.368E+01 0.559E+01 -.175E+02   -.332E+01 -.704E+01 0.174E+02   -.137E+01 0.217E+01 0.232E+01   -.553E-03 0.120E-03 0.233E-02
   -.155E+02 -.541E+01 0.979E+00   0.154E+02 0.531E+01 -.135E+01   0.901E+00 0.625E+00 0.168E+00   0.397E-03 -.485E-03 0.107E-03
   -.877E+01 -.114E+02 -.162E+02   0.868E+01 0.978E+01 0.146E+02   -.555E-01 0.262E+01 0.315E+01   0.428E-03 -.292E-03 -.194E-02
   -.109E+02 0.204E+02 -.218E+02   0.109E+02 -.192E+02 0.196E+02   0.780E+00 -.295E+01 0.430E+01   -.513E-03 0.195E-03 -.958E-03
   0.795E+01 0.488E+01 0.694E+01   -.797E+01 -.474E+01 -.567E+01   -.101E+01 -.952E+00 -.266E+01   -.556E-03 -.752E-03 0.520E-03
   0.875E+01 0.157E+02 0.876E+00   -.891E+01 -.156E+02 -.296E+00   -.108E+01 -.813E+00 -.126E+01   0.299E-03 -.170E-03 -.274E-03
   -.112E+02 0.957E+01 0.849E+01   0.118E+02 -.751E+01 -.845E+01   -.405E+00 -.305E+01 -.750E+00   -.906E-03 0.421E-03 0.201E-02
   -.769E+01 0.227E+01 0.253E+02   0.655E+01 -.255E+00 -.224E+02   0.298E+01 -.345E+01 -.677E+01   0.378E-03 0.106E-03 -.373E-03
   0.107E+01 -.249E+01 0.312E+00   -.400E+00 0.279E+01 0.478E+00   -.117E+01 -.273E-01 -.189E+01   0.406E-03 -.153E-03 -.494E-03
   0.238E+01 -.196E+02 0.336E+01   -.323E+01 0.199E+02 -.384E+01   0.236E+01 0.232E+01 0.203E+01   -.404E-03 -.498E-03 -.154E-02
   -.128E+02 -.176E+01 0.242E+01   0.121E+02 0.204E+01 -.391E+01   0.114E+01 -.507E+00 0.237E+01   -.933E-03 0.773E-03 -.463E-03
   -.635E+01 -.831E+01 0.351E+01   0.532E+01 0.873E+01 -.189E+01   0.136E+01 0.110E+00 -.261E+01   -.417E-03 -.104E-04 0.171E-02
   0.788E+00 0.243E+01 0.131E+02   -.259E-01 -.134E+01 -.130E+02   -.223E+01 -.204E+01 -.209E+01   -.210E-03 -.894E-03 -.153E-02
   0.168E+02 0.320E+02 -.839E+01   -.153E+02 -.308E+02 0.820E+01   -.310E+01 -.337E+01 0.126E+01   -.481E-04 -.140E-03 0.200E-02
   0.695E+01 0.326E+02 0.133E+02   -.512E+01 -.305E+02 -.135E+02   -.195E+01 -.581E+01 -.135E+01   -.337E-04 -.222E-03 -.257E-03
   0.156E+02 -.133E+02 0.764E+01   -.158E+02 0.127E+02 -.630E+01   0.428E+00 0.666E+00 -.179E+01   -.296E-03 0.251E-04 -.243E-02
   -.496E+01 -.125E+02 0.793E+01   0.530E+01 0.105E+02 -.749E+01   -.377E+00 0.394E+01 -.189E+01   -.794E-04 -.369E-03 0.126E-02
   -.306E+01 -.228E+02 0.440E+01   0.978E+00 0.200E+02 -.431E+01   0.405E+01 0.578E+01 -.989E+00   -.107E-03 -.495E-03 -.693E-03
   0.160E+02 0.203E+02 -.167E+02   -.129E+02 -.200E+02 0.151E+02   -.514E+01 -.152E+01 0.380E+01   -.425E-03 -.737E-05 -.247E-02
   0.792E+01 0.179E+02 -.241E+02   -.975E+01 -.161E+02 0.227E+02   0.176E+01 -.293E+01 0.344E+01   0.713E-03 0.220E-03 0.252E-02
   -.910E+00 -.341E+02 -.160E+01   0.110E+01 0.318E+02 0.180E+01   -.326E+00 0.550E+01 -.828E+00   0.305E-03 -.633E-04 0.174E-02
   -.213E+02 0.213E+02 -.172E+01   0.212E+02 -.215E+02 0.232E+01   0.202E+01 -.793E+00 -.130E+01   0.751E-04 0.746E-03 -.198E-02
   0.731E+00 -.207E+02 -.351E+01   -.125E+01 0.187E+02 0.199E+01   0.546E+00 0.578E+01 0.239E+01   -.254E-03 0.429E-03 -.976E-03
   0.606E+01 0.619E+01 0.429E+01   -.558E+01 -.457E+01 -.389E+01   -.144E+00 -.296E+01 -.189E+01   -.367E-03 -.725E-03 0.431E-03
   -.236E+02 -.985E+01 -.154E+02   0.231E+02 0.927E+01 0.139E+02   0.314E+01 0.197E+01 0.360E+01   0.536E-03 -.610E-03 -.183E-02
   -.889E+00 -.150E+02 0.345E+01   0.292E+01 0.128E+02 -.428E+01   -.401E+01 0.539E+01 0.108E+01   0.977E-04 -.472E-03 -.652E-03
   -.755E+01 -.122E+01 0.141E+02   0.920E+01 0.123E+01 -.115E+02   -.120E+01 0.602E+00 -.446E+01   -.560E-03 0.884E-03 0.226E-02
   0.115E+02 0.868E+00 -.142E+02   -.132E+02 -.178E+01 0.122E+02   0.149E+01 0.115E+01 0.428E+01   -.359E-03 -.389E-03 0.227E-02
   0.111E+02 -.947E-01 -.281E+02   -.112E+02 0.284E+00 0.248E+02   -.500E+00 -.207E+01 0.735E+01   -.743E-04 -.371E-03 -.521E-03
   -.952E+01 -.114E+02 -.699E+01   0.930E+01 0.115E+02 0.733E+01   -.310E-01 0.579E+00 -.363E+00   -.369E-03 0.556E-03 0.223E-02
   0.106E+02 0.144E+02 0.160E+02   -.996E+01 -.135E+02 -.161E+02   -.223E+01 -.293E+01 0.461E+00   -.531E-03 0.635E-03 -.215E-02
   0.514E+01 -.838E+01 0.240E+02   -.611E+01 0.757E+01 -.232E+02   0.207E+01 0.180E+01 -.291E+01   0.705E-03 0.378E-03 0.165E-02
   0.831E+01 0.508E+01 -.657E+01   -.858E+01 -.589E+01 0.646E+01   -.226E+00 0.176E+01 -.107E+01   0.250E-04 0.438E-03 0.700E-03
   0.173E+02 -.367E+01 0.221E+02   -.160E+02 0.536E+01 -.200E+02   -.342E+01 -.141E+01 -.526E+01   -.492E-03 -.170E-03 0.294E-03
   0.242E+02 0.152E+02 -.125E+02   -.241E+02 -.136E+02 0.139E+02   -.209E+01 -.238E+01 -.815E+00   0.406E-03 0.795E-04 0.206E-02
   -.192E+02 0.105E+02 0.305E+01   0.182E+02 -.957E+01 -.478E+01   0.455E+01 -.231E+01 0.196E+01   -.696E-04 -.599E-03 0.209E-02
   -.667E+01 0.149E+02 0.522E+00   0.652E+01 -.120E+02 -.146E+01   0.408E+00 -.714E+01 0.233E+01   0.283E-03 -.378E-03 0.164E-02
   0.452E+01 -.110E+02 -.166E+02   -.499E+01 0.109E+02 0.147E+02   -.965E+00 0.583E+00 0.365E+01   0.516E-04 -.181E-03 0.160E-02
   -.146E+02 0.204E+02 0.117E+02   0.126E+02 -.172E+02 -.107E+02   0.373E+01 -.539E+01 -.100E+01   -.188E-03 0.819E-03 -.183E-02
   -.145E+01 0.171E+02 -.119E+02   0.111E+01 -.185E+02 0.120E+02   0.102E+01 0.114E+00 0.109E+00   0.434E-03 -.474E-03 -.211E-02
   0.111E+02 -.187E+01 -.637E+01   -.111E+02 0.215E+01 0.614E+01   -.669E+00 0.847E+00 0.782E+00   0.836E-03 0.219E-03 -.136E-02
   -.855E+00 -.110E+02 -.977E+01   -.121E+01 0.891E+01 0.881E+01   0.165E+01 0.448E+01 0.154E+01   -.198E-03 -.880E-03 -.157E-02
   -.147E+02 -.775E+00 0.127E+02   0.137E+02 0.168E+00 -.112E+02   0.208E+01 0.227E+00 -.310E+01   0.318E-03 0.426E-03 -.148E-02
   0.194E+02 -.656E+01 0.102E+01   -.167E+02 0.432E+01 -.257E+00   -.637E+01 0.636E+01 -.198E+01   0.806E-03 0.414E-03 -.213E-02
   -.936E+01 -.189E+01 0.477E+01   0.102E+02 0.996E+00 -.507E+01   -.678E+00 0.988E+00 -.578E+00   0.257E-03 -.356E-03 -.144E-03
   -.551E+01 0.754E+01 0.107E+02   0.558E+01 -.619E+01 -.930E+01   0.103E+00 -.163E+01 -.235E+01   -.892E-03 0.571E-03 -.261E-02
 -----------------------------------------------------------------------------------------------
   0.371E+01 0.261E+01 -.503E+01   0.941E-13 -.155E-12 -.586E-13   -.370E+01 -.262E+01 0.503E+01   0.610E-04 0.659E-03 -.173E-02
 
 
 POSITION                                       TOTAL-FORCE (eV/Angst)
 -----------------------------------------------------------------------------------
      1.32939      4.40446      4.28209        -0.393873      0.018640     -0.788584
      8.41483      1.31109      4.64065         0.751368     -1.883163     -1.553351
      9.78838      6.77847      7.27356        -0.667449      1.143909      2.171133
      7.66283      3.53164      5.99545        -1.591955     -0.173768      1.384613
      5.76258      9.95098      8.61441         0.452220      0.465219      0.564769
      9.87533      8.06022      9.19407        -0.269671      0.573343     -1.896316
      4.56884      6.98646      9.23564        -1.487631      0.477859     -1.197886
      4.97763      5.65436      7.14996         2.384426      0.007786      1.318263
      6.35143      7.51024      0.16305        -0.150650      0.909002      0.315243
      1.09790      5.46561      6.31110         1.305628      0.390896     -0.006491
      9.70981      2.43021      2.94866        -0.798043      0.702777     -1.467147
      3.16360      5.30947      3.00482         0.832012      1.538443     -0.117199
      0.14667      6.88557      4.78497         1.034246      2.575799     -1.772344
      5.19451      9.64782      2.17511        -2.027795     -1.088055      1.322884
      8.98299      9.55770      7.01486         3.642203     -1.261248      0.541187
      0.24826      4.60376      9.77690         0.887177     -2.919512     -2.798982
      3.01239      9.01824      5.65309        -1.801314     -2.496706     -0.145390
      1.71263      8.75832      3.64356        -1.801266      0.904020      0.264350
      8.11296      9.15606      4.44037        -0.674613      0.399497     -0.662570
      8.20413      7.47262      5.96860        -2.035404      2.181468     -1.397944
      6.05361      3.57898      7.79026        -0.094622      3.076589     -0.625590
     10.18985      9.15491      5.09472         0.090142     -0.427074      0.283729
      4.91318      1.59582      3.30048         0.784378      0.552476     -2.150371
      8.13927      0.03656      9.15841        -0.412955      0.075741      0.273918
      8.33346      0.22619      2.33146         1.737809     -1.371886      2.373729
      4.78595      3.27791      9.84074         0.615447      2.125845      0.439900
      9.75291      8.28173      2.78547        -0.291250     -0.065570     -0.695601
      9.85251      1.36939      6.31895        -0.357630     -0.199304      1.949859
      8.29552      3.46994      9.33423         0.202344      1.943936     -1.224842
      7.92940      6.79071      3.44275         3.633742     -3.446986      4.325878
      9.80869     10.07114      0.40560         0.913220      0.161401     -0.902738
      1.39469      4.46064      1.59963         0.182552     -0.357224      1.730132
      6.86102      3.69328      1.02246        -2.054276     -1.398498      0.250562
      1.02751      8.11041      0.73233         1.250762      1.134484      0.445440
      0.78705      2.31904      0.75237        -1.148034     -1.748612     -0.393033
      5.89069      7.72360      4.93382         0.452481     -0.177324      0.868226
      1.77044      1.63384      8.42469         0.296883      0.548286      1.474338
      9.05758      4.17653      1.20870         0.809838     -2.478059      2.304846
      8.40411      8.18151      0.63322         2.054747     -0.736282     -0.213560
      6.17124      5.28791      9.61513        -0.062496     -0.863285     -2.799683
      9.74295      2.02823      8.51265         0.768196     -0.117168      0.985555
      6.95181      9.74869      6.53648        -0.341133     -0.826589     -1.685490
      5.69640      6.28217      2.99265        -0.925794     -0.077387      0.153622
      4.79260      5.35068      1.05809        -1.514306     -0.087117      1.081335
      5.45588      7.95607      7.24551        -0.749683     -1.735950      0.928051
      1.62415      0.44124      6.24301         2.516352     -0.537426      3.482596
      0.82445      0.88007      4.38920        -0.422926      1.467675     -3.019624
      6.36222      1.71377      5.06734        -0.390155      1.260115     -0.137400
      3.93896      1.29849      9.57423        -0.456805     -1.861218     -1.251310
      0.71105     10.02292      8.36361        -1.963022     -2.743751     -0.147432
      4.44176      9.18466      0.01225         0.293371      0.292075     -0.624643
      1.17095      8.18629      6.79289         0.502895      1.507488      0.906973
      3.26698      0.07546      3.74520        -0.368643      2.283130      0.260673
      1.83899      2.38118      2.98793        -0.497241     -0.058616     -0.321092
      3.46347     10.15208      7.64433        -1.012831      0.718764      2.229145
      5.20247      3.64851      5.61959         0.819313      0.516784     -0.204612
      7.14996      2.06527      2.62249        -0.139587      1.042957      1.576676
      2.38787      6.89634      4.67557         0.811002     -1.723587      2.056495
      2.52678      3.46447     10.15809        -1.028136     -0.806077     -1.385970
      6.70593      5.61691      5.30095        -1.242909     -0.665890     -0.682458
      2.51171      8.48149      9.00361         0.127935     -0.983685     -0.705961
      6.80396      9.88726      0.83302         1.843013     -1.432544     -3.937514
      4.41999      5.81419      4.95803        -0.501787      0.264799     -1.100484
      3.22409      1.19454      1.55726         1.514259      2.609073      1.550047
      2.51592      6.19620      0.41503         0.430613     -0.222239      0.870931
      3.40377      5.03388      8.83526         0.336043      0.532405     -0.985299
      3.77333      3.42194      1.85303        -1.464070     -0.960618     -1.933737
      9.44038      4.58308      7.44683        -1.586884     -2.170585      1.065646
      8.96737      5.47105      5.38736        -0.129563     -3.721733     -1.546493
      0.69697      0.18902      2.30217         0.167166     -0.011325     -0.451964
      3.11888      4.44442      6.47630        -0.036570      1.937590     -1.454258
      9.59352      3.12608      5.07639         1.962141      3.022879     -0.904043
      9.98622      5.51582      2.91674        -2.019146     -1.145057      2.131847
      7.54791      8.17625      8.18350        -0.072993     -1.143087      1.997708
      7.79913      1.35234      7.34050        -0.137003      3.222089     -0.628052
      4.01501      8.15724      3.75348         1.881017     -1.026733     -0.693318
      9.99072      6.21569      0.82740         0.029756      3.785511      0.856995
      1.63136      2.78246      5.91911         0.332297     -1.347492     -1.491380
      5.48937      3.86952      3.02883         2.709185      1.385000      2.078670
      5.63505      1.39752      0.97178        -1.985804      3.129569      0.251573
      1.27990      6.39132      8.85203         0.439759      0.612226     -1.806542
      1.27235      3.80213      7.86326        -0.198530      0.237218      2.304088
      3.76300      1.64599      5.21712        -0.625379     -1.879748      4.060079
      3.06452      6.89476      7.09929        -0.255897      0.611678     -0.018107
      2.90162      9.29767      1.77930        -1.586648     -1.971099      0.383910
      8.36515      5.87489      9.57071         1.098506      0.991852     -2.171077
      4.90319      9.76559      6.06331        -0.504881      0.943307     -1.177425
      2.01036      0.16216      0.14255        -2.129346      0.277159     -3.176940
      7.48029      5.91285      7.48554        -2.062005     -0.794325      0.569071
      3.41402      2.83483      7.79855         3.533778     -1.391290      0.240614
      6.60961      2.11807      9.22220         0.255176     -4.193182      1.391184
      5.33287      1.54024      7.05260        -1.434529      0.443209      1.783682
      4.00907      7.48494      1.59588         1.787507     -2.175002      0.063164
      7.79483      4.35182      3.40833         0.677045     -1.217766      0.151836
      7.52035      5.86644      1.43623        -0.618540      1.126184      0.558145
      3.42115      3.41009      4.15313        -0.415539      2.434314      0.575036
      5.98677      9.90164      4.20273         1.140201     -0.379760     -1.670225
      7.16456      8.28293      2.43493        -3.702096      4.120866     -1.219067
      8.56853      1.81192      0.71816         0.179743      0.095480     -0.874237
      1.53726      6.84137      2.55870         0.171416     -0.278207     -0.932566
 -----------------------------------------------------------------------------------
    total drift:                                0.008511     -0.011692     -0.005073


--------------------------------------------------------------------------------------------------------



  FREE ENERGIE OF THE ION-ELECTRON SYSTEM (eV)
  ---------------------------------------------------
  free  energy   TOTEN  =      -409.90280828 eV

  energy  without entropy=     -409.83737245  energy(sigma->0) =     -409.87009036
 


--------------------------------------------------------------------------------------------------------


    POTLOK:  cpu time    0.0890: real time    0.0894


--------------------------------------------------------------------------------------------------------


     LOOP+:  cpu time   36.3274: real time   36.9621
    4ORBIT:  cpu time    0.0000: real time    0.0000

 total amount of memory used by VASP MPI-rank0    53948. kBytes
=======================================================================

   base      :      30000. kBytes
   nonlr-proj:       8280. kBytes
   fftplans  :       1377. kBytes
   grid      :       7520. kBytes
   one-center:        614. kBytes
   wavefun   :       6157. kBytes
 
  
  
 General timing and accounting informations for this job:
 ========================================================
  
                  Total CPU time used (sec):       37.451
                            User time (sec):       36.014
                          System time (sec):        1.437
                         Elapsed time (sec):       39.125
  
                   Maximum memory used (kb):      185136.
                   Average memory used (kb):           0.
  
                          Minor page faults:       108350
                          Major page faults:            0
                 Voluntary context switches:          866
