BEGIN_CFG
 Size
    100
 Supercell
        10.211495      0.000000      0.000000
         0.000000     10.211495      0.000000
         0.000000      0.000000     10.211495
 AtomData:  id type       cartes_x      cartes_y      cartes_z           fx          fy          fz
             1    0       1.329390      4.404460      4.282090    -0.393873    0.018640   -0.788584
             2    0       8.414830      1.311090      4.640650     0.751368   -1.883163   -1.553351
             3    0       9.788380      6.778470      7.273560    -0.667449    1.143909    2.171133
             4    0       7.662830      3.531640      5.995450    -1.591955   -0.173768    1.384613
             5    0       5.762580      9.950980      8.614410     0.452220    0.465219    0.564769
             6    0       9.875330      8.060220      9.194070    -0.269671    0.573343   -1.896316
             7    0       4.568840      6.986460      9.235640    -1.487631    0.477859   -1.197886
             8    0       4.977630      5.654360      7.149960     2.384426    0.007786    1.318263
             9    0       6.351430      7.510240      0.163050    -0.150650    0.909002    0.315243
            10    0       1.097900      5.465610      6.311100     1.305628    0.390896   -0.006491
            11    0       9.709810      2.430210      2.948660    -0.798043    0.702777   -1.467147
            12    0       3.163600      5.309470      3.004820     0.832012    1.538443   -0.117199
            13    0       0.146670      6.885570      4.784970     1.034246    2.575799   -1.772344
            14    0       5.194510      9.647820      2.175110    -2.027795   -1.088055    1.322884
            15    0       8.982990      9.557700      7.014860     3.642203   -1.261248    0.541187
            16    0       0.248260      4.603760      9.776900     0.887177   -2.919512   -2.798982
            17    0       3.012390      9.018240      5.653090    -1.801314   -2.496706   -0.145390
            18    0       1.712630      8.758320      3.643560    -1.801266    0.904020    0.264350
            19    0       8.112960      9.156060      4.440370    -0.674613    0.399497   -0.662570
            20    0       8.204130      7.472620      5.968600    -2.035404    2.181468   -1.397944
            21    0       6.053610      3.578980      7.790260    -0.094622    3.076589   -0.625590
            22    0      10.189850      9.154910      5.094720     0.090142   -0.427074    0.283729
            23    0       4.913180      1.595820      3.300480     0.784378    0.552476   -2.150371
            24    0       8.139270      0.036560      9.158410    -0.412955    0.075741    0.273918
            25    0       8.333460      0.226190      2.331460     1.737809   -1.371886    2.373729
            26    0       4.785950      3.277910      9.840740     0.615447    2.125845    0.439900
            27    0       9.752910      8.281730      2.785470    -0.291250   -0.065570   -0.695601
            28    0       9.852510      1.369390      6.318950    -0.357630   -0.199304    1.949859
            29    0       8.295520      3.469940      9.334230     0.202344    1.943936   -1.224842
            30    0       7.929400      6.790710      3.442750     3.633742   -3.446986    4.325878
            31    0       9.808690     10.071140      0.405600     0.913220    0.161401   -0.902738
            32    0       1.394690      4.460640      1.599630     0.182552   -0.357224    1.730132
            33    0       6.861020      3.693280      1.022460    -2.054276   -1.398498    0.250562
            34    0       1.027510      8.110410      0.732330     1.250762    1.134484    0.445440
            35    0       0.787050      2.319040      0.752370    -1.148034   -1.748612   -0.393033
            36    0       5.890690      7.723600      4.933820     0.452481   -0.177324    0.868226
            37    0       1.770440      1.633840      8.424690     0.296883    0.548286    1.474338
            38    0       9.057580      4.176530      1.208700     0.809838   -2.478059    2.304846
            39    0       8.404110      8.181510      0.633220     2.054747   -0.736282   -0.213560
            40    0       6.171240      5.287910      9.615130    -0.062496   -0.863285   -2.799683
            41    0       9.742950      2.028230      8.512650     0.768196   -0.117168    0.985555
            42    0       6.951810      9.748690      6.536480    -0.341133   -0.826589   -1.685490
            43    0       5.696400      6.282170      2.992650    -0.925794   -0.077387    0.153622
            44    0       4.792600      5.350680      1.058090    -1.514306   -0.087117    1.081335
            45    0       5.455880      7.956070      7.245510    -0.749683   -1.735950    0.928051
            46    0       1.624150      0.441240      6.243010     2.516352   -0.537426    3.482596
            47    0       0.824450      0.880070      4.389200    -0.422926    1.467675   -3.019624
            48    0       6.362220      1.713770      5.067340    -0.390155    1.260115   -0.137400
            49    0       3.938960      1.298490      9.574230    -0.456805   -1.861218   -1.251310
            50    0       0.711050     10.022920      8.363610    -1.963022   -2.743751   -0.147432
            51    0       4.441760      9.184660      0.012250     0.293371    0.292075   -0.624643
            52    0       1.170950      8.186290      6.792890     0.502895    1.507488    0.906973
            53    0       3.266980      0.075460      3.745200    -0.368643    2.283130    0.260673
            54    0       1.838990      2.381180      2.987930    -0.497241   -0.058616   -0.321092
            55    0       3.463470     10.152080      7.644330    -1.012831    0.718764    2.229145
            56    0       5.202470      3.648510      5.619590     0.819313    0.516784   -0.204612
            57    0       7.149960      2.065270      2.622490    -0.139587    1.042957    1.576676
            58    0       2.387870      6.896340      4.675570     0.811002   -1.723587    2.056495
            59    0       2.526780      3.464470     10.158090    -1.028136   -0.806077   -1.385970
            60    0       6.705930      5.616910      5.300950    -1.242909   -0.665890   -0.682458
            61    0       2.511710      8.481490      9.003610     0.127935   -0.983685   -0.705961
            62    0       6.803960      9.887260      0.833020     1.843013   -1.432544   -3.937514
            63    0       4.419990      5.814190      4.958030    -0.501787    0.264799   -1.100484
            64    0       3.224090      1.194540      1.557260     1.514259    2.609073    1.550047
            65    0       2.515920      6.196200      0.415030     0.430613   -0.222239    0.870931
            66    0       3.403770      5.033880      8.835260     0.336043    0.532405   -0.985299
            67    0       3.773330      3.421940      1.853030    -1.464070   -0.960618   -1.933737
            68    0       9.440380      4.583080      7.446830    -1.586884   -2.170585    1.065646
            69    0       8.967370      5.471050      5.387360    -0.129563   -3.721733   -1.546493
            70    0       0.696970      0.189020      2.302170     0.167166   -0.011325   -0.451964
            71    0       3.118880      4.444420      6.476300    -0.036570    1.937590   -1.454258
            72    0       9.593520      3.126080      5.076390     1.962141    3.022879   -0.904043
            73    0       9.986220      5.515820      2.916740    -2.019146   -1.145057    2.131847
            74    0       7.547910      8.176250      8.183500    -0.072993   -1.143087    1.997708
            75    0       7.799130      1.352340      7.340500    -0.137003    3.222089   -0.628052
            76    0       4.015010      8.157240      3.753480     1.881017   -1.026733   -0.693318
            77    0       9.990720      6.215690      0.827400     0.029756    3.785511    0.856995
            78    0       1.631360      2.782460      5.919110     0.332297   -1.347492   -1.491380
            79    0       5.489370      3.869520      3.028830     2.709185    1.385000    2.078670
            80    0       5.635050      1.397520      0.971780    -1.985804    3.129569    0.251573
            81    0       1.279900      6.391320      8.852030     0.439759    0.612226   -1.806542
            82    0       1.272350      3.802130      7.863260    -0.198530    0.237218    2.304088
            83    0       3.763000      1.645990      5.217120    -0.625379   -1.879748    4.060079
            84    0       3.064520      6.894760      7.099290    -0.255897    0.611678   -0.018107
            85    0       2.901620      9.297670      1.779300    -1.586648   -1.971099    0.383910
            86    0       8.365150      5.874890      9.570710     1.098506    0.991852   -2.171077
            87    0       4.903190      9.765590      6.063310    -0.504881    0.943307   -1.177425
            88    0       2.010360      0.162160      0.142550    -2.129346    0.277159   -3.176940
            89    0       7.480290      5.912850      7.485540    -2.062005   -0.794325    0.569071
            90    0       3.414020      2.834830      7.798550     3.533778   -1.391290    0.240614
            91    0       6.609610      2.118070      9.222200     0.255176   -4.193182    1.391184
            92    0       5.332870      1.540240      7.052600    -1.434529    0.443209    1.783682
            93    0       4.009070      7.484940      1.595880     1.787507   -2.175002    0.063164
            94    0       7.794830      4.351820      3.408330     0.677045   -1.217766    0.151836
            95    0       7.520350      5.866440      1.436230    -0.618540    1.126184    0.558145
            96    0       3.421150      3.410090      4.153130    -0.415539    2.434314    0.575036
            97    0       5.986770      9.901640      4.202730     1.140201   -0.379760   -1.670225
            98    0       7.164560      8.282930      2.434930    -3.702096    4.120866   -1.219067
            99    0       8.568530      1.811920      0.718160     0.179743    0.095480   -0.874237
           100    0       1.537260      6.841370      2.558700     0.171416   -0.278207   -0.932566
 Energy
       -409.902808280000
 PlusStress:  xx          yy          zz          yz          xz          xy
       457.19341   445.77061   448.53952   -10.08963     6.93109     4.52533
 Feature   EFS_by	VASP
END_CFG

