<?xml version="1.0" encoding="ISO-8859-1"?>
<modeling>
 <generator>
  <i name="program" type="string">vasp </i>
  <i name="version" type="string">5.4.4.18Apr17-6-g9f103f2a35  </i>
  <i name="subversion" type="string">(build Sep 16 2020 16:20:45) complex            parallel </i>
  <i name="platform" type="string">LinuxIFC </i>
  <i name="date" type="string">2021 08 09 </i>
  <i name="time" type="string">15:41:55 </i>
 </generator>
 <incar>
  <i type="string" name="PREC">normal</i>
  <i type="string" name="ALGO"> Very Fast</i>
  <i type="int" name="ISPIN">     2</i>
  <i type="int" name="NELM">    60</i>
  <i type="int" name="NELMIN">     4</i>
  <i name="EDIFF">      0.00001000</i>
  <i type="int" name="ISYM">     0</i>
  <i type="string" name="LREAL"> auto</i>
  <i type="int" name="ISMEAR">     0</i>
  <i name="SIGMA">      0.05000000</i>
  <i type="logical" name="LWAVE"> F  </i>
  <i type="logical" name="LCHARG"> F  </i>
  <v type="int" name="KPOINT_BSE">    -1     0     0     0</v>
  <i type="int" name="NELM">    60</i>
 </incar>
 <structure name="primitive_cell" >
  <crystal>
   <varray name="basis" >
    <v>      10.21149500       0.00000000       0.00000000 </v>
    <v>       0.00000000      10.21149500       0.00000000 </v>
    <v>       0.00000000       0.00000000      10.21149500 </v>
   </varray>
   <i name="volume">   1064.79986425 </i>
   <varray name="rec_basis" >
    <v>       0.09792885       0.00000000       0.00000000 </v>
    <v>       0.00000000       0.09792885       0.00000000 </v>
    <v>       0.00000000       0.00000000       0.09792885 </v>
   </varray>
  </crystal>
  <varray name="positions" >
   <v>       0.13018600       0.43132400       0.41934000 </v>
   <v>       0.10751600      -0.46475900      -0.38196100 </v>
   <v>       0.33502900       0.33394600       0.40671100 </v>
   <v>       0.15975700       0.27248300      -0.42034800 </v>
   <v>      -0.02206100      -0.45984200       0.28563300 </v>
   <v>       0.30980800      -0.48005000       0.29425900 </v>
   <v>       0.18009000       0.23318600       0.29260500 </v>
   <v>      -0.06051800       0.30613300       0.49712500 </v>
   <v>       0.13658000       0.43682500       0.15665000 </v>
   <v>       0.23384100      -0.32464900       0.45787300 </v>
   <v>       0.01436310      -0.32570400       0.46858700 </v>
   <v>       0.30542800       0.43523700      -0.36578300 </v>
   <v>       0.15054200      -0.33003200       0.25057100 </v>
   <v>      -0.12183600      -0.46422600      -0.47242200 </v>
   <v>      -0.04912900       0.23798800       0.28875900 </v>
   <v>       0.43284500      -0.43062300       0.48553400 </v>
   <v>       0.08073740       0.08618450       0.42982900 </v>
   <v>       0.36951800       0.33510700       0.18146500 </v>
   <v>       0.12460000       0.37233800      -0.22996000 </v>
   <v>       0.36850600       0.16119000      -0.48909300 </v>
   <v>      -0.07551400       0.44881600      -0.27074000 </v>
   <v>      -0.23666100       0.42616900       0.33377400 </v>
   <v>      -0.11300200       0.40900300       0.11836700 </v>
   <v>      -0.03515500       0.13410300      -0.38119200 </v>
   <v>       0.07707510       0.22710100       0.07367850 </v>
   <v>       0.30010500      -0.32480400      -0.30477500 </v>
   <v>      -0.49052800       0.35729400      -0.44968000 </v>
   <v>      -0.02162000      -0.39130500       0.08102620 </v>
   <v>      -0.04143500      -0.33619200      -0.28770900 </v>
   <v>      -0.24958800       0.34584900      -0.41287200 </v>
   <v>      -0.46243200       0.37893800       0.29661000 </v>
   <v>       0.33433100       0.27761200      -0.23629700 </v>
   <v>      -0.22348300      -0.33499400       0.33714500 </v>
   <v>      -0.17594500       0.12839400       0.45445400 </v>
   <v>       0.16771600      -0.14230800       0.35681000 </v>
   <v>       0.24638100      -0.39321300       0.04064350 </v>
   <v>       0.15905100       0.04321060      -0.38862900 </v>
   <v>      -0.04490900      -0.18898000       0.27277800 </v>
   <v>       0.11467000      -0.19832600      -0.33478000 </v>
   <v>       0.24744500       0.33927200      -0.00523000 </v>
   <v>       0.31573100       0.11698000       0.15250100 </v>
   <v>       0.39318500      -0.20117100       0.36757400 </v>
   <v>       0.48114200       0.15627700       0.32321200 </v>
   <v>       0.06825320       0.01851100       0.22544900 </v>
   <v>       0.31993200       0.00739020       0.36676300 </v>
   <v>       0.48745400      -0.44627500      -0.29981300 </v>
   <v>       0.46933400      -0.47601400       0.10361800 </v>
   <v>      -0.19657900      -0.26821500      -0.41550200 </v>
   <v>       0.02431150       0.45084100      -0.04255900 </v>
   <v>       0.39260400      -0.26700800       0.15628300 </v>
   <v>      -0.44215800      -0.38479400       0.29306700 </v>
   <v>       0.12533900      -0.37410500      -0.13313100 </v>
   <v>       0.17337700       0.16000000      -0.17498000 </v>
   <v>      -0.00212000      -0.10347000       0.49892000 </v>
   <v>       0.33332700       0.49296200      -0.13477300 </v>
   <v>      -0.34329600      -0.44994200      -0.48088400 </v>
   <v>       0.29500000      -0.11685400      -0.44639900 </v>
   <v>      -0.26354100      -0.42550600       0.14064800 </v>
   <v>       0.10062300      -0.20575700       0.07171670 </v>
   <v>      -0.04588400       0.19862200      -0.16636600 </v>
   <v>      -0.29981300       0.20225000       0.25681700 </v>
   <v>      -0.16089400       0.17743900       0.07032870 </v>
   <v>      -0.26746400      -0.42096100      -0.26695000 </v>
   <v>      -0.18391400       0.02215080       0.22831700 </v>
   <v>      -0.47775800       0.15083400      -0.30934700 </v>
   <v>      -0.42313100      -0.24363700       0.48316300 </v>
   <v>      -0.23624000       0.13243300      -0.28115300 </v>
   <v>       0.28415200      -0.08949000       0.17424500 </v>
   <v>      -0.32810800       0.36167900       0.10012800 </v>
   <v>      -0.37695500       0.16782800       0.49623900 </v>
   <v>      -0.20550700      -0.10335800       0.43484000 </v>
   <v>       0.46868300       0.32100200      -0.03630800 </v>
   <v>      -0.40717700       0.35048500      -0.23710900 </v>
   <v>       0.19687200       0.01588000       0.01396000 </v>
   <v>       0.33917400      -0.00581800      -0.25140000 </v>
   <v>      -0.18081000      -0.42467900      -0.06275100 </v>
   <v>      -0.18762900       0.33980700      -0.08591000 </v>
   <v>      -0.17699500      -0.19879400       0.06201010 </v>
   <v>      -0.29838300      -0.18886200       0.23845000 </v>
   <v>       0.06963230      -0.01846700      -0.18096100 </v>
   <v>      -0.46571200      -0.22087100      -0.29045600 </v>
   <v>      -0.44816600       0.13685800       0.09516550 </v>
   <v>      -0.03944600      -0.01374500       0.03972020 </v>
   <v>       0.48016400      -0.04366700      -0.40622700 </v>
   <v>      -0.12030600      -0.06402500      -0.31304300 </v>
   <v>      -0.03292000      -0.21067200      -0.09963500 </v>
   <v>       0.24596900      -0.16941700      -0.11828700 </v>
   <v>       0.38573800       0.12716000      -0.06240700 </v>
   <v>       0.44742100      -0.31582400      -0.09556400 </v>
   <v>      -0.41372200      -0.03034350       0.41156900 </v>
   <v>      -0.49130800      -0.05520040       0.21300600 </v>
   <v>      -0.26084200      -0.19930900      -0.19859900 </v>
   <v>      -0.39565800      -0.48216100      -0.05840100 </v>
   <v>      -0.31921700      -0.04532200      -0.35989000 </v>
   <v>       0.43497600      -0.10055700       0.00120000 </v>
   <v>      -0.37801200      -0.26453100       0.01596740 </v>
   <v>      -0.35272800       0.20742000      -0.09688100 </v>
   <v>      -0.20293100       0.00358000      -0.10312700 </v>
   <v>      -0.33369600      -0.03175200       0.08157680 </v>
   <v>      -0.43567700      -0.02551200      -0.15640100 </v>
  </varray>
 </structure>
 <varray name="primitive_index" >
  <v type="int" >        1 </v>
  <v type="int" >       10 </v>
  <v type="int" >       96 </v>
  <v type="int" >       78 </v>
  <v type="int" >       73 </v>
  <v type="int" >       12 </v>
  <v type="int" >       54 </v>
  <v type="int" >       72 </v>
  <v type="int" >       32 </v>
  <v type="int" >       58 </v>
  <v type="int" >       13 </v>
  <v type="int" >       71 </v>
  <v type="int" >      100 </v>
  <v type="int" >       69 </v>
  <v type="int" >       11 </v>
  <v type="int" >       63 </v>
  <v type="int" >       47 </v>
  <v type="int" >       67 </v>
  <v type="int" >       82 </v>
  <v type="int" >       83 </v>
  <v type="int" >       68 </v>
  <v type="int" >       94 </v>
  <v type="int" >       38 </v>
  <v type="int" >       28 </v>
  <v type="int" >       35 </v>
  <v type="int" >       84 </v>
  <v type="int" >       56 </v>
  <v type="int" >       77 </v>
  <v type="int" >        3 </v>
  <v type="int" >        4 </v>
  <v type="int" >       79 </v>
  <v type="int" >       90 </v>
  <v type="int" >       30 </v>
  <v type="int" >        2 </v>
  <v type="int" >       18 </v>
  <v type="int" >       65 </v>
  <v type="int" >       46 </v>
  <v type="int" >       27 </v>
  <v type="int" >       52 </v>
  <v type="int" >       59 </v>
  <v type="int" >       64 </v>
  <v type="int" >       76 </v>
  <v type="int" >       23 </v>
  <v type="int" >       70 </v>
  <v type="int" >       53 </v>
  <v type="int" >        8 </v>
  <v type="int" >       44 </v>
  <v type="int" >       20 </v>
  <v type="int" >       16 </v>
  <v type="int" >       93 </v>
  <v type="int" >       43 </v>
  <v type="int" >       81 </v>
  <v type="int" >       37 </v>
  <v type="int" >       22 </v>
  <v type="int" >       66 </v>
  <v type="int" >       60 </v>
  <v type="int" >       17 </v>
  <v type="int" >       95 </v>
  <v type="int" >       34 </v>
  <v type="int" >       41 </v>
  <v type="int" >       57 </v>
  <v type="int" >       99 </v>
  <v type="int" >       89 </v>
  <v type="int" >       25 </v>
  <v type="int" >       92 </v>
  <v type="int" >       36 </v>
  <v type="int" >       75 </v>
  <v type="int" >       85 </v>
  <v type="int" >       33 </v>
  <v type="int" >       48 </v>
  <v type="int" >       19 </v>
  <v type="int" >       26 </v>
  <v type="int" >       21 </v>
  <v type="int" >       88 </v>
  <v type="int" >       55 </v>
  <v type="int" >       86 </v>
  <v type="int" >       29 </v>
  <v type="int" >       39 </v>
  <v type="int" >       98 </v>
  <v type="int" >       50 </v>
  <v type="int" >       45 </v>
  <v type="int" >       80 </v>
  <v type="int" >       31 </v>
  <v type="int" >       87 </v>
  <v type="int" >       15 </v>
  <v type="int" >        6 </v>
  <v type="int" >       61 </v>
  <v type="int" >       49 </v>
  <v type="int" >        7 </v>
  <v type="int" >       97 </v>
  <v type="int" >       14 </v>
  <v type="int" >       74 </v>
  <v type="int" >       40 </v>
  <v type="int" >       42 </v>
  <v type="int" >       51 </v>
  <v type="int" >        9 </v>
  <v type="int" >       91 </v>
  <v type="int" >       24 </v>
  <v type="int" >       62 </v>
  <v type="int" >        5 </v>
 </varray>
 <kpoints>
  <generation param="Gamma">
   <v type="int" name="divisions">       1        1        1 </v>
   <v name="usershift">      0.00000000       0.00000000       0.00000000 </v>
   <v name="genvec1">      1.00000000       0.00000000       0.00000000 </v>
   <v name="genvec2">      0.00000000       1.00000000       0.00000000 </v>
   <v name="genvec3">      0.00000000       0.00000000       1.00000000 </v>
   <v name="shift">      0.00000000       0.00000000       0.00000000 </v>
  </generation>
  <varray name="kpointlist" >
   <v>       0.00000000       0.00000000       0.00000000 </v>
  </varray>
  <varray name="weights" >
   <v>       1.00000000 </v>
  </varray>
 </kpoints>
 <parameters>
  <separator name="general" >
   <i type="string" name="SYSTEM">unknown system</i>
   <i type="logical" name="LCOMPAT"> F  </i>
  </separator>
  <separator name="electronic" >
   <i type="string" name="PREC">normal</i>
   <i name="ENMAX">    245.34500000</i>
   <i name="ENAUG">    322.06900000</i>
   <i name="EDIFF">      0.00001000</i>
   <i type="int" name="IALGO">    48</i>
   <i type="int" name="IWAVPR">    10</i>
   <i type="int" name="NBANDS">   304</i>
   <i name="NELECT">    400.00000000</i>
   <i type="int" name="TURBO">     0</i>
   <i type="int" name="IRESTART">     0</i>
   <i type="int" name="NREBOOT">     0</i>
   <i type="int" name="NMIN">     0</i>
   <i name="EREF">      0.00000000</i>
   <separator name="electronic smearing" >
    <i type="int" name="ISMEAR">     0</i>
    <i name="SIGMA">      0.05000000</i>
    <i name="KSPACING">      0.50000000</i>
    <i type="logical" name="KGAMMA"> T  </i>
   </separator>
   <separator name="electronic projectors" >
    <i type="logical" name="LREAL"> T  </i>
    <v name="ROPT">     -0.00050000</v>
    <i type="int" name="LMAXPAW">  -100</i>
    <i type="int" name="LMAXMIX">     2</i>
    <i type="logical" name="NLSPLINE"> F  </i>
   </separator>
   <separator name="electronic startup" >
    <i type="int" name="ISTART">     0</i>
    <i type="int" name="ICHARG">     2</i>
    <i type="int" name="INIWAV">     1</i>
   </separator>
   <separator name="electronic spin" >
    <i type="int" name="ISPIN">     2</i>
    <i type="logical" name="LNONCOLLINEAR"> F  </i>
    <v name="MAGMOM">      1.00000000      1.00000000      1.00000000      1.00000000      1.00000000      1.00000000      1.00000000      1.00000000      1.00000000      1.00000000      1.00000000      1.00000000      1.00000000      1.00000000      1.00000000      1.00000000      1.00000000      1.00000000      1.00000000      1.00000000
      1.00000000      1.00000000      1.00000000      1.00000000      1.00000000      1.00000000      1.00000000      1.00000000      1.00000000      1.00000000      1.00000000      1.00000000      1.00000000      1.00000000      1.00000000      1.00000000      1.00000000      1.00000000      1.00000000      1.00000000
      1.00000000      1.00000000      1.00000000      1.00000000      1.00000000      1.00000000      1.00000000      1.00000000      1.00000000      1.00000000      1.00000000      1.00000000      1.00000000      1.00000000      1.00000000      1.00000000      1.00000000      1.00000000      1.00000000      1.00000000
      1.00000000      1.00000000      1.00000000      1.00000000      1.00000000      1.00000000      1.00000000      1.00000000      1.00000000      1.00000000      1.00000000      1.00000000      1.00000000      1.00000000      1.00000000      1.00000000      1.00000000      1.00000000      1.00000000      1.00000000
      1.00000000      1.00000000      1.00000000      1.00000000      1.00000000      1.00000000      1.00000000      1.00000000      1.00000000      1.00000000      1.00000000      1.00000000      1.00000000      1.00000000      1.00000000      1.00000000      1.00000000      1.00000000      1.00000000      1.00000000
</v>
    <i name="NUPDOWN">     -1.00000000</i>
    <i type="logical" name="LSORBIT"> F  </i>
    <v name="SAXIS">      0.00000000      0.00000000      1.00000000</v>
    <i type="logical" name="LSPIRAL"> F  </i>
    <v name="QSPIRAL">      0.00000000      0.00000000      0.00000000</v>
    <i type="logical" name="LZEROZ"> F  </i>
   </separator>
   <separator name="electronic exchange-correlation" >
    <i type="logical" name="LASPH"> F  </i>
    <i type="logical" name="LMETAGGA"> F  </i>
   </separator>
   <separator name="electronic convergence" >
    <i type="int" name="NELM">    60</i>
    <i type="int" name="NELMDL">   -12</i>
    <i type="int" name="NELMIN">     4</i>
    <i name="ENINI">    245.34500000</i>
    <separator name="electronic convergence detail" >
     <i type="logical" name="LDIAG"> T  </i>
     <i type="logical" name="LSUBROT"> F  </i>
     <i name="WEIMIN">      0.00000000</i>
     <i name="EBREAK">      0.00000001</i>
     <i name="DEPER">      0.30000000</i>
     <i type="int" name="NRMM">     4</i>
     <i name="TIME">      0.40000000</i>
    </separator>
   </separator>
   <separator name="electronic mixer" >
    <i name="AMIX">      0.40000000</i>
    <i name="BMIX">      1.00000000</i>
    <i name="AMIN">      0.10000000</i>
    <i name="AMIX_MAG">      1.60000000</i>
    <i name="BMIX_MAG">      1.00000000</i>
    <separator name="electronic mixer details" >
     <i type="int" name="IMIX">     4</i>
     <i type="logical" name="MIXFIRST"> F  </i>
     <i type="int" name="MAXMIX">   -45</i>
     <i name="WC">    100.00000000</i>
     <i type="int" name="INIMIX">     1</i>
     <i type="int" name="MIXPRE">     1</i>
     <i type="int" name="MREMOVE">     5</i>
    </separator>
   </separator>
   <separator name="electronic dipolcorrection" >
    <i type="logical" name="LDIPOL"> F  </i>
    <i type="logical" name="LMONO"> F  </i>
    <i type="int" name="IDIPOL">     0</i>
    <i name="EPSILON">      1.00000000</i>
    <v name="DIPOL">   -100.00000000   -100.00000000   -100.00000000</v>
    <i name="EFIELD">      0.00000000</i>
   </separator>
  </separator>
  <separator name="grids" >
   <i type="int" name="NGX">    40</i>
   <i type="int" name="NGY">    40</i>
   <i type="int" name="NGZ">    40</i>
   <i type="int" name="NGXF">    80</i>
   <i type="int" name="NGYF">    80</i>
   <i type="int" name="NGZF">    80</i>
   <i type="logical" name="ADDGRID"> F  </i>
  </separator>
  <separator name="ionic" >
   <i type="int" name="NSW">     0</i>
   <i type="int" name="IBRION">    -1</i>
   <i type="int" name="MDALGO">     0</i>
   <i type="int" name="ISIF">     2</i>
   <i name="PSTRESS">      0.00000000</i>
   <i name="EDIFFG">      0.00010000</i>
   <i type="int" name="NFREE">     0</i>
   <i name="POTIM">      0.50000000</i>
   <i name="SMASS">     -3.00000000</i>
   <i name="SCALEE">      1.00000000</i>
  </separator>
  <separator name="ionic md" >
   <i name="TEBEG">      0.00010000</i>
   <i name="TEEND">      0.00010000</i>
   <i type="int" name="NBLOCK">     1</i>
   <i type="int" name="KBLOCK">     1</i>
   <i type="int" name="NPACO">   256</i>
   <i name="APACO">     16.00000000</i>
  </separator>
  <separator name="symmetry" >
   <i type="int" name="ISYM">     0</i>
   <i name="SYMPREC">      0.00001000</i>
  </separator>
  <separator name="dos" >
   <i type="int" name="LORBIT">     0</i>
   <v name="RWIGS">     -1.00000000</v>
   <i type="int" name="NEDOS">   301</i>
   <i name="EMIN">     10.00000000</i>
   <i name="EMAX">    -10.00000000</i>
   <i name="EFERMI">      0.00000000</i>
  </separator>
  <separator name="writing" >
   <i type="int" name="NWRITE">     2</i>
   <i type="logical" name="LWAVE"> F  </i>
   <i type="logical" name="LDOWNSAMPLE"> F  </i>
   <i type="logical" name="LCHARG"> F  </i>
   <i type="logical" name="LPARD"> F  </i>
   <i type="logical" name="LVTOT"> F  </i>
   <i type="logical" name="LVHAR"> F  </i>
   <i type="logical" name="LELF"> F  </i>
   <i type="logical" name="LOPTICS"> F  </i>
   <v name="STM">      0.00000000      0.00000000      0.00000000      0.00000000      0.00000000      0.00000000      0.00000000</v>
  </separator>
  <separator name="performance" >
   <i type="int" name="NPAR">    16</i>
   <i type="int" name="NSIM">     4</i>
   <i type="int" name="NBLK">    -1</i>
   <i type="logical" name="LPLANE"> T  </i>
   <i type="logical" name="LSCALAPACK"> T  </i>
   <i type="logical" name="LSCAAWARE"> F  </i>
   <i type="logical" name="LSCALU"> F  </i>
   <i type="logical" name="LASYNC"> F  </i>
   <i type="logical" name="LORBITALREAL"> F  </i>
  </separator>
  <separator name="miscellaneous" >
   <i type="int" name="IDIOT">     3</i>
   <i type="int" name="ISPECIAL">     0</i>
   <i type="logical" name="LMUSIC"> F  </i>
   <v name="POMASS">     28.08500000</v>
   <v name="DARWINR">      0.00000000</v>
   <v name="DARWINV">      1.00000000</v>
   <i type="logical" name="LCORR"> T  </i>
  </separator>
  <i type="logical" name="GGA_COMPAT"> T  </i>
  <i type="logical" name="LBERRY"> F  </i>
  <i type="int" name="ICORELEVEL">     0</i>
  <i type="logical" name="LDAU"> F  </i>
  <i type="int" name="I_CONSTRAINED_M">     0</i>
  <separator name="electronic exchange-correlation" >
   <i type="string" name="GGA">--</i>
   <i type="int" name="VOSKOWN">     0</i>
   <i type="logical" name="LHFCALC"> F  </i>
   <i type="string" name="PRECFOCK"></i>
   <i type="logical" name="LSYMGRAD"> F  </i>
   <i type="logical" name="LHFONE"> F  </i>
   <i type="logical" name="LRHFCALC"> F  </i>
   <i type="logical" name="LTHOMAS"> F  </i>
   <i type="logical" name="LMODELHF"> F  </i>
   <i name="ENCUT4O">     -1.00000000</i>
   <i type="int" name="EXXOEP">     0</i>
   <i type="int" name="FOURORBIT">     0</i>
   <i name="AEXX">      0.00000000</i>
   <i name="HFALPHA">      0.00000000</i>
   <i name="MCALPHA">      0.00000000</i>
   <i name="ALDAX">      1.00000000</i>
   <i name="AGGAX">      1.00000000</i>
   <i name="ALDAC">      1.00000000</i>
   <i name="AGGAC">      1.00000000</i>
   <i type="int" name="NKREDX">     1</i>
   <i type="int" name="NKREDY">     1</i>
   <i type="int" name="NKREDZ">     1</i>
   <i type="logical" name="SHIFTRED"> F  </i>
   <i type="logical" name="ODDONLY"> F  </i>
   <i type="logical" name="EVENONLY"> F  </i>
   <i type="int" name="LMAXFOCK">     0</i>
   <i type="int" name="NMAXFOCKAE">     0</i>
   <i type="logical" name="LFOCKAEDFT"> F  </i>
   <i name="HFSCREEN">      0.00000000</i>
   <i name="HFSCREENC">      0.00000000</i>
   <i type="int" name="NBANDSGWLOW">     0</i>
  </separator>
  <separator name="vdW DFT" >
   <i type="logical" name="LUSE_VDW"> F  </i>
   <i name="Zab_VDW">     -0.84910000</i>
   <i name="PARAM1">      0.12340000</i>
   <i name="PARAM2">      1.00000000</i>
   <i name="PARAM3">      0.00000000</i>
  </separator>
  <separator name="model GW" >
   <i type="int" name="MODEL_GW">     0</i>
   <i name="MODEL_EPS0">      6.38879919</i>
   <i name="MODEL_ALPHA">      1.00000000</i>
  </separator>
  <separator name="linear response parameters" >
   <i type="logical" name="LEPSILON"> F  </i>
   <i type="logical" name="LRPA"> F  </i>
   <i type="logical" name="LNABLA"> F  </i>
   <i type="logical" name="LVEL"> F  </i>
   <i type="int" name="KINTER">     0</i>
   <i name="CSHIFT">      0.10000000</i>
   <i name="OMEGAMAX">     -1.00000000</i>
   <i name="DEG_THRESHOLD">      0.00200000</i>
   <i name="RTIME">     -0.10000000</i>
   <i name="WPLASMAI">      0.00000000</i>
   <v name="DFIELD">      0.00000000      0.00000000      0.00000000</v>
   <v name="WPLASMA">      0.00000000      0.00000000      0.00000000      0.00000000      0.00000000      0.00000000      0.00000000      0.00000000      0.00000000</v>
  </separator>
  <separator name="orbital magnetization" >
   <i type="logical" name="NUCIND"> F  </i>
   <v name="MAGPOS">      0.00000000      0.00000000      0.00000000</v>
   <i type="logical" name="LNICSALL"> T  </i>
   <i type="logical" name="ORBITALMAG"> F  </i>
   <i type="logical" name="LMAGBLOCH"> F  </i>
   <i type="logical" name="LCHIMAG"> F  </i>
   <i type="logical" name="LGAUGE"> T  </i>
   <i type="int" name="MAGATOM">     0</i>
   <v name="MAGDIPOL">      0.00000000      0.00000000      0.00000000</v>
   <v name="AVECCONST">      0.00000000      0.00000000      0.00000000</v>
  </separator>
  <separator name="response functions" >
   <i type="logical" name="LADDER"> F  </i>
   <i type="logical" name="LRPAFORCE"> F  </i>
   <i type="logical" name="LFXC"> F  </i>
   <i type="logical" name="LHARTREE"> T  </i>
   <i type="int" name="IBSE">     0</i>
   <v type="int" name="KPOINT">    -1     0     0     0</v>
   <i type="logical" name="LTCTE"> F  </i>
   <i type="logical" name="LTETE"> F  </i>
   <i type="logical" name="LTRIPLET"> F  </i>
   <i type="logical" name="LFXCEPS"> F  </i>
   <i type="logical" name="LFXHEG"> F  </i>
   <i type="int" name="NATURALO">     2</i>
   <i type="logical" name="L2ORDER"> F  </i>
   <i type="logical" name="LMP2LT"> F  </i>
   <i type="logical" name="LUSEW"> F  </i>
   <i name="ENCUTGW">     -2.00000000</i>
   <i name="ENCUTGWSOFT">     -2.00000000</i>
   <i name="ENCUTLF">     -1.00000000</i>
   <i type="int" name="LMAXMP2">    -1</i>
   <i name="SCISSOR">      0.00000000</i>
   <i type="int" name="NOMEGA">     0</i>
   <i type="int" name="NOMEGAR">     0</i>
   <i type="int" name="NBANDSGW">    -1</i>
   <i type="int" name="NBANDSO">    -1</i>
   <i type="int" name="NBANDSV">    -1</i>
   <i type="int" name="NELM">    60</i>
   <i type="int" name="NELMHF">     1</i>
   <i type="int" name="DIM">     3</i>
   <i type="int" name="ANTIRES">     0</i>
   <i name="OMEGAMAX">    -30.00000000</i>
   <i name="OMEGAMIN">    -30.00000000</i>
   <i name="OMEGATL">   -200.00000000</i>
   <i type="int" name="OMEGAGRID">   140</i>
   <i name="CSHIFT">     -0.10000000</i>
   <i type="logical" name="SELFENERGY"> F  </i>
   <i type="logical" name="LSPECTRAL"> F  </i>
   <i type="logical" name="LSPECTRALGW"> F  </i>
   <i type="logical" name="LSINGLES"> F  </i>
   <i type="logical" name="LFERMIGW"> F  </i>
   <i type="logical" name="ODDONLYGW"> F  </i>
   <i type="logical" name="EVENONLYGW"> F  </i>
   <i type="int" name="NKREDLFX">     1</i>
   <i type="int" name="NKREDLFY">     1</i>
   <i type="int" name="NKREDLFZ">     1</i>
   <i type="int" name="MAXMEM">  2800</i>
   <i type="int" name="TELESCOPE">     0</i>
   <i type="int" name="TAUPAR">     1</i>
   <i type="int" name="OMEGAPAR">    -1</i>
   <i name="LAMBDA">      1.00000000</i>
  </separator>
  <separator name="External order field" >
   <i name="OFIELD_KAPPA">      0.00000000</i>
   <v name="OFIELD_K">      0.00000000      0.00000000      0.00000000</v>
   <i name="OFIELD_Q6_NEAR">      0.00000000</i>
   <i name="OFIELD_Q6_FAR">      0.00000000</i>
   <i name="OFIELD_A">      0.00000000</i>
  </separator>
 </parameters>
 <atominfo>
  <atoms>     100 </atoms>
  <types>       1 </types>
  <array name="atoms" >
   <dimension dim="1">ion</dimension>
   <field type="string">element</field>
   <field type="int">atomtype</field>
   <set>
    <rc><c>Si</c><c>   1</c></rc>
    <rc><c>Si</c><c>   1</c></rc>
    <rc><c>Si</c><c>   1</c></rc>
    <rc><c>Si</c><c>   1</c></rc>
    <rc><c>Si</c><c>   1</c></rc>
    <rc><c>Si</c><c>   1</c></rc>
    <rc><c>Si</c><c>   1</c></rc>
    <rc><c>Si</c><c>   1</c></rc>
    <rc><c>Si</c><c>   1</c></rc>
    <rc><c>Si</c><c>   1</c></rc>
    <rc><c>Si</c><c>   1</c></rc>
    <rc><c>Si</c><c>   1</c></rc>
    <rc><c>Si</c><c>   1</c></rc>
    <rc><c>Si</c><c>   1</c></rc>
    <rc><c>Si</c><c>   1</c></rc>
    <rc><c>Si</c><c>   1</c></rc>
    <rc><c>Si</c><c>   1</c></rc>
    <rc><c>Si</c><c>   1</c></rc>
    <rc><c>Si</c><c>   1</c></rc>
    <rc><c>Si</c><c>   1</c></rc>
    <rc><c>Si</c><c>   1</c></rc>
    <rc><c>Si</c><c>   1</c></rc>
    <rc><c>Si</c><c>   1</c></rc>
    <rc><c>Si</c><c>   1</c></rc>
    <rc><c>Si</c><c>   1</c></rc>
    <rc><c>Si</c><c>   1</c></rc>
    <rc><c>Si</c><c>   1</c></rc>
    <rc><c>Si</c><c>   1</c></rc>
    <rc><c>Si</c><c>   1</c></rc>
    <rc><c>Si</c><c>   1</c></rc>
    <rc><c>Si</c><c>   1</c></rc>
    <rc><c>Si</c><c>   1</c></rc>
    <rc><c>Si</c><c>   1</c></rc>
    <rc><c>Si</c><c>   1</c></rc>
    <rc><c>Si</c><c>   1</c></rc>
    <rc><c>Si</c><c>   1</c></rc>
    <rc><c>Si</c><c>   1</c></rc>
    <rc><c>Si</c><c>   1</c></rc>
    <rc><c>Si</c><c>   1</c></rc>
    <rc><c>Si</c><c>   1</c></rc>
    <rc><c>Si</c><c>   1</c></rc>
    <rc><c>Si</c><c>   1</c></rc>
    <rc><c>Si</c><c>   1</c></rc>
    <rc><c>Si</c><c>   1</c></rc>
    <rc><c>Si</c><c>   1</c></rc>
    <rc><c>Si</c><c>   1</c></rc>
    <rc><c>Si</c><c>   1</c></rc>
    <rc><c>Si</c><c>   1</c></rc>
    <rc><c>Si</c><c>   1</c></rc>
    <rc><c>Si</c><c>   1</c></rc>
    <rc><c>Si</c><c>   1</c></rc>
    <rc><c>Si</c><c>   1</c></rc>
    <rc><c>Si</c><c>   1</c></rc>
    <rc><c>Si</c><c>   1</c></rc>
    <rc><c>Si</c><c>   1</c></rc>
    <rc><c>Si</c><c>   1</c></rc>
    <rc><c>Si</c><c>   1</c></rc>
    <rc><c>Si</c><c>   1</c></rc>
    <rc><c>Si</c><c>   1</c></rc>
    <rc><c>Si</c><c>   1</c></rc>
    <rc><c>Si</c><c>   1</c></rc>
    <rc><c>Si</c><c>   1</c></rc>
    <rc><c>Si</c><c>   1</c></rc>
    <rc><c>Si</c><c>   1</c></rc>
    <rc><c>Si</c><c>   1</c></rc>
    <rc><c>Si</c><c>   1</c></rc>
    <rc><c>Si</c><c>   1</c></rc>
    <rc><c>Si</c><c>   1</c></rc>
    <rc><c>Si</c><c>   1</c></rc>
    <rc><c>Si</c><c>   1</c></rc>
    <rc><c>Si</c><c>   1</c></rc>
    <rc><c>Si</c><c>   1</c></rc>
    <rc><c>Si</c><c>   1</c></rc>
    <rc><c>Si</c><c>   1</c></rc>
    <rc><c>Si</c><c>   1</c></rc>
    <rc><c>Si</c><c>   1</c></rc>
    <rc><c>Si</c><c>   1</c></rc>
    <rc><c>Si</c><c>   1</c></rc>
    <rc><c>Si</c><c>   1</c></rc>
    <rc><c>Si</c><c>   1</c></rc>
    <rc><c>Si</c><c>   1</c></rc>
    <rc><c>Si</c><c>   1</c></rc>
    <rc><c>Si</c><c>   1</c></rc>
    <rc><c>Si</c><c>   1</c></rc>
    <rc><c>Si</c><c>   1</c></rc>
    <rc><c>Si</c><c>   1</c></rc>
    <rc><c>Si</c><c>   1</c></rc>
    <rc><c>Si</c><c>   1</c></rc>
    <rc><c>Si</c><c>   1</c></rc>
    <rc><c>Si</c><c>   1</c></rc>
    <rc><c>Si</c><c>   1</c></rc>
    <rc><c>Si</c><c>   1</c></rc>
    <rc><c>Si</c><c>   1</c></rc>
    <rc><c>Si</c><c>   1</c></rc>
    <rc><c>Si</c><c>   1</c></rc>
    <rc><c>Si</c><c>   1</c></rc>
    <rc><c>Si</c><c>   1</c></rc>
    <rc><c>Si</c><c>   1</c></rc>
    <rc><c>Si</c><c>   1</c></rc>
    <rc><c>Si</c><c>   1</c></rc>
   </set>
  </array>
  <array name="atomtypes" >
   <dimension dim="1">type</dimension>
   <field type="int">atomspertype</field>
   <field type="string">element</field>
   <field>mass</field>
   <field>valence</field>
   <field type="string">pseudopotential</field>
   <set>
    <rc><c> 100</c><c>Si</c><c>     28.08500000</c><c>      4.00000000</c><c>  PAW_PBE Si 05Jan2001                  </c></rc>
   </set>
  </array>
 </atominfo>
 <structure name="initialpos" >
  <crystal>
   <varray name="basis" >
    <v>      10.21149500       0.00000000       0.00000000 </v>
    <v>       0.00000000      10.21149500       0.00000000 </v>
    <v>       0.00000000       0.00000000      10.21149500 </v>
   </varray>
   <i name="volume">   1064.79986425 </i>
   <varray name="rec_basis" >
    <v>       0.09792885       0.00000000       0.00000000 </v>
    <v>       0.00000000       0.09792885       0.00000000 </v>
    <v>       0.00000000       0.00000000       0.09792885 </v>
   </varray>
  </crystal>
  <varray name="positions" >
   <v>       0.13018600       0.43132400       0.41934000 </v>
   <v>       0.82405500       0.12839400       0.45445400 </v>
   <v>       0.95856500       0.66380800       0.71229100 </v>
   <v>       0.75041200       0.34584900       0.58712800 </v>
   <v>       0.56432300       0.97448800       0.84359900 </v>
   <v>       0.96708000       0.78932800       0.90036500 </v>
   <v>       0.44742100       0.68417600       0.90443600 </v>
   <v>       0.48745400       0.55372500       0.70018700 </v>
   <v>       0.62198800       0.73546900       0.01596740 </v>
   <v>       0.10751600       0.53524100       0.61803900 </v>
   <v>       0.95087100       0.23798800       0.28875900 </v>
   <v>       0.30980800       0.51995000       0.29425900 </v>
   <v>       0.01436310       0.67429600       0.46858700 </v>
   <v>       0.50869200       0.94479960       0.21300600 </v>
   <v>       0.87969400       0.93597500       0.68695700 </v>
   <v>       0.02431150       0.45084100       0.95744100 </v>
   <v>       0.29500000       0.88314600       0.55360100 </v>
   <v>       0.16771600       0.85769200       0.35681000 </v>
   <v>       0.79449300       0.89664200       0.43484000 </v>
   <v>       0.80342100       0.73178500       0.58449800 </v>
   <v>       0.59282300       0.35048500       0.76289100 </v>
   <v>       0.99788000       0.89653000       0.49892000 </v>
   <v>       0.48114200       0.15627700       0.32321200 </v>
   <v>       0.79706900       0.00358000       0.89687300 </v>
   <v>       0.81608600       0.02215080       0.22831700 </v>
   <v>       0.46868300       0.32100200       0.96369200 </v>
   <v>       0.95509100       0.81102000       0.27277800 </v>
   <v>       0.96484500       0.13410300       0.61880800 </v>
   <v>       0.81237100       0.33980700       0.91409000 </v>
   <v>       0.77651700       0.66500600       0.33714500 </v>
   <v>       0.96055400       0.98625500       0.03972020 </v>
   <v>       0.13658000       0.43682500       0.15665000 </v>
   <v>       0.67189200       0.36167900       0.10012800 </v>
   <v>       0.10062300       0.79424300       0.07171670 </v>
   <v>       0.07707510       0.22710100       0.07367850 </v>
   <v>       0.57686900       0.75636300       0.48316300 </v>
   <v>       0.17337700       0.16000000       0.82502000 </v>
   <v>       0.88699800       0.40900300       0.11836700 </v>
   <v>       0.82300500       0.80120600       0.06201010 </v>
   <v>       0.60434200       0.51783900       0.94159900 </v>
   <v>       0.95411600       0.19862200       0.83363400 </v>
   <v>       0.68078300       0.95467800       0.64011000 </v>
   <v>       0.55784200       0.61520600       0.29306700 </v>
   <v>       0.46933400       0.52398600       0.10361800 </v>
   <v>       0.53428800       0.77912900       0.70954400 </v>
   <v>       0.15905100       0.04321060       0.61137100 </v>
   <v>       0.08073740       0.08618450       0.42982900 </v>
   <v>       0.62304500       0.16782800       0.49623900 </v>
   <v>       0.38573800       0.12716000       0.93759300 </v>
   <v>       0.06963230       0.98153300       0.81903900 </v>
   <v>       0.43497600       0.89944300       0.00120000 </v>
   <v>       0.11467000       0.80167400       0.66522000 </v>
   <v>       0.31993200       0.00739020       0.36676300 </v>
   <v>       0.18009000       0.23318600       0.29260500 </v>
   <v>       0.33917400       0.99418200       0.74860000 </v>
   <v>       0.50947200       0.35729400       0.55032000 </v>
   <v>       0.70018700       0.20225000       0.25681700 </v>
   <v>       0.23384100       0.67535100       0.45787300 </v>
   <v>       0.24744500       0.33927200       0.99477000 </v>
   <v>       0.65670400       0.55005800       0.51911600 </v>
   <v>       0.24596900       0.83058300       0.88171300 </v>
   <v>       0.66630400       0.96824800       0.08157680 </v>
   <v>       0.43284500       0.56937700       0.48553400 </v>
   <v>       0.31573100       0.11698000       0.15250100 </v>
   <v>       0.24638100       0.60678700       0.04064350 </v>
   <v>       0.33332700       0.49296200       0.86522700 </v>
   <v>       0.36951800       0.33510700       0.18146500 </v>
   <v>       0.92448600       0.44881600       0.72926000 </v>
   <v>       0.87816400       0.53577400       0.52757800 </v>
   <v>       0.06825320       0.01851100       0.22544900 </v>
   <v>       0.30542800       0.43523700       0.63421700 </v>
   <v>       0.93948200       0.30613300       0.49712500 </v>
   <v>       0.97793900       0.54015800       0.28563300 </v>
   <v>       0.73915800       0.80069100       0.80140100 </v>
   <v>       0.76376000       0.13243300       0.71884700 </v>
   <v>       0.39318500       0.79882900       0.36757400 </v>
   <v>       0.97838000       0.60869500       0.08102620 </v>
   <v>       0.15975700       0.27248300       0.57965200 </v>
   <v>       0.53756800       0.37893800       0.29661000 </v>
   <v>       0.55183400       0.13685800       0.09516550 </v>
   <v>       0.12533900       0.62589500       0.86686900 </v>
   <v>       0.12460000       0.37233800       0.77004000 </v>
   <v>       0.36850600       0.16119000       0.51090700 </v>
   <v>       0.30010500       0.67519600       0.69522500 </v>
   <v>       0.28415200       0.91051000       0.17424500 </v>
   <v>       0.81919000       0.57532100       0.93724900 </v>
   <v>       0.48016400       0.95633300       0.59377300 </v>
   <v>       0.19687200       0.01588000       0.01396000 </v>
   <v>       0.73253600       0.57903900       0.73305000 </v>
   <v>       0.33433100       0.27761200       0.76370300 </v>
   <v>       0.64727200       0.20742000       0.90311900 </v>
   <v>       0.52224200       0.15083400       0.69065300 </v>
   <v>       0.39260400       0.73299200       0.15628300 </v>
   <v>       0.76333900       0.42616900       0.33377400 </v>
   <v>       0.73645900       0.57449400       0.14064800 </v>
   <v>       0.33502900       0.33394600       0.40671100 </v>
   <v>       0.58627800       0.96965650       0.41156900 </v>
   <v>       0.70161700       0.81113800       0.23845000 </v>
   <v>       0.83910600       0.17743900       0.07032870 </v>
   <v>       0.15054200       0.66996800       0.25057100 </v>
  </varray>
 </structure>
 <calculation>
  <scstep>
   <time name="diag">    0.35    0.35</time>
   <time name="diis">    0.43    0.44</time>
   <time name="orth">    0.10    0.10</time>
   <time name="total">    0.96    1.10</time>
   <energy>
    <i name="alphaZ">    316.14514549 </i>
    <i name="ewald"> -14913.33829673 </i>
    <i name="hartreedc">    -98.00270506 </i>
    <i name="XCdc">   -777.40007381 </i>
    <i name="pawpsdc">   8803.41707833 </i>
    <i name="pawaedc">  -7043.47671478 </i>
    <i name="eentropy">     -0.02742978 </i>
    <i name="bandstr">   4793.68586188 </i>
    <i name="atom">  10306.12861560 </i>
    <i name="e_fr_energy">   1387.13148114 </i>
    <i name="e_wo_entrp">   1387.15891093 </i>
    <i name="e_0_energy">   1387.14519604 </i>
   </energy>
  </scstep>
  <scstep>
   <time name="diag">    0.34    0.34</time>
   <time name="diis">    0.44    0.44</time>
   <time name="orth">    0.10    0.10</time>
   <time name="total">    0.87    0.88</time>
   <energy>
    <i name="e_fr_energy">     11.69473081 </i>
    <i name="e_wo_entrp">     11.71563900 </i>
    <i name="e_0_energy">     11.70518490 </i>
   </energy>
  </scstep>
  <scstep>
   <time name="diag">    0.34    0.34</time>
   <time name="diis">    0.43    0.44</time>
   <time name="orth">    0.10    0.10</time>
   <time name="total">    0.87    0.88</time>
   <energy>
    <i name="e_fr_energy">   -274.16088674 </i>
    <i name="e_wo_entrp">   -274.10906820 </i>
    <i name="e_0_energy">   -274.13497747 </i>
   </energy>
  </scstep>
  <scstep>
   <time name="diag">    0.34    0.34</time>
   <time name="diis">    0.44    0.44</time>
   <time name="orth">    0.10    0.10</time>
   <time name="total">    0.87    0.88</time>
   <energy>
    <i name="e_fr_energy">   -354.95772005 </i>
    <i name="e_wo_entrp">   -354.92013934 </i>
    <i name="e_0_energy">   -354.93892969 </i>
   </energy>
  </scstep>
  <scstep>
   <time name="diag">    0.34    0.34</time>
   <time name="diis">    0.44    0.44</time>
   <time name="orth">    0.10    0.10</time>
   <time name="total">    0.87    0.88</time>
   <energy>
    <i name="e_fr_energy">   -381.03432232 </i>
    <i name="e_wo_entrp">   -380.97118982 </i>
    <i name="e_0_energy">   -381.00275607 </i>
   </energy>
  </scstep>
  <scstep>
   <time name="diag">    0.34    0.34</time>
   <time name="diis">    0.44    0.44</time>
   <time name="orth">    0.10    0.10</time>
   <time name="total">    0.87    0.88</time>
   <energy>
    <i name="e_fr_energy">   -390.85797692 </i>
    <i name="e_wo_entrp">   -390.81666164 </i>
    <i name="e_0_energy">   -390.83731928 </i>
   </energy>
  </scstep>
  <scstep>
   <time name="diag">    0.34    0.34</time>
   <time name="diis">    0.43    0.44</time>
   <time name="orth">    0.10    0.10</time>
   <time name="total">    0.87    0.88</time>
   <energy>
    <i name="e_fr_energy">   -394.40352616 </i>
    <i name="e_wo_entrp">   -394.35963158 </i>
    <i name="e_0_energy">   -394.38157887 </i>
   </energy>
  </scstep>
  <scstep>
   <time name="diag">    0.34    0.34</time>
   <time name="diis">    0.44    0.45</time>
   <time name="orth">    0.10    0.10</time>
   <time name="total">    0.87    0.88</time>
   <energy>
    <i name="e_fr_energy">   -395.84386134 </i>
    <i name="e_wo_entrp">   -395.79637634 </i>
    <i name="e_0_energy">   -395.82011884 </i>
   </energy>
  </scstep>
  <scstep>
   <time name="diag">    0.34    0.34</time>
   <time name="diis">    0.97    0.98</time>
   <time name="orth">    0.10    0.10</time>
   <time name="total">    1.40    1.42</time>
   <energy>
    <i name="e_fr_energy">   -396.68649945 </i>
    <i name="e_wo_entrp">   -396.63614134 </i>
    <i name="e_0_energy">   -396.66132039 </i>
   </energy>
  </scstep>
  <scstep>
   <time name="diag">    0.34    0.34</time>
   <time name="diis">    0.91    0.93</time>
   <time name="orth">    0.10    0.10</time>
   <time name="total">    1.35    1.36</time>
   <energy>
    <i name="e_fr_energy">   -396.79532787 </i>
    <i name="e_wo_entrp">   -396.74545626 </i>
    <i name="e_0_energy">   -396.77039207 </i>
   </energy>
  </scstep>
  <scstep>
   <time name="diag">    0.34    0.34</time>
   <time name="diis">    0.89    0.90</time>
   <time name="orth">    0.10    0.10</time>
   <time name="total">    1.32    1.34</time>
   <energy>
    <i name="e_fr_energy">   -396.79772071 </i>
    <i name="e_wo_entrp">   -396.74787174 </i>
    <i name="e_0_energy">   -396.77279623 </i>
   </energy>
  </scstep>
  <scstep>
   <time name="diag">    0.34    0.34</time>
   <time name="diis">    0.76    0.77</time>
   <time name="orth">    0.10    0.10</time>
   <time name="total">    1.24    1.25</time>
   <energy>
    <i name="e_fr_energy">   -396.79773571 </i>
    <i name="e_wo_entrp">   -396.74788671 </i>
    <i name="e_0_energy">   -396.77281121 </i>
   </energy>
  </scstep>
  <scstep>
   <time name="diag">    0.34    0.34</time>
   <time name="diis">    0.88    0.89</time>
   <time name="orth">    0.10    0.10</time>
   <time name="total">    1.44    1.46</time>
   <energy>
    <i name="e_fr_energy">   -401.27188533 </i>
    <i name="e_wo_entrp">   -401.23618675 </i>
    <i name="e_0_energy">   -401.25403604 </i>
   </energy>
  </scstep>
  <scstep>
   <time name="diag">    0.34    0.34</time>
   <time name="diis">    0.88    0.90</time>
   <time name="orth">    0.10    0.10</time>
   <time name="total">    1.45    1.47</time>
   <energy>
    <i name="e_fr_energy">   -408.87385218 </i>
    <i name="e_wo_entrp">   -408.81652644 </i>
    <i name="e_0_energy">   -408.84518931 </i>
   </energy>
  </scstep>
  <scstep>
   <time name="diag">    0.34    0.34</time>
   <time name="diis">    0.90    0.92</time>
   <time name="orth">    0.10    0.10</time>
   <time name="total">    1.47    1.49</time>
   <energy>
    <i name="e_fr_energy">   -409.61739913 </i>
    <i name="e_wo_entrp">   -409.57071493 </i>
    <i name="e_0_energy">   -409.59405703 </i>
   </energy>
  </scstep>
  <scstep>
   <time name="diag">    0.34    0.34</time>
   <time name="diis">    0.90    0.92</time>
   <time name="orth">    0.10    0.10</time>
   <time name="total">    1.47    1.49</time>
   <energy>
    <i name="e_fr_energy">   -409.75352212 </i>
    <i name="e_wo_entrp">   -409.70141981 </i>
    <i name="e_0_energy">   -409.72747096 </i>
   </energy>
  </scstep>
  <scstep>
   <time name="diag">    0.34    0.34</time>
   <time name="diis">    0.93    0.95</time>
   <time name="orth">    0.10    0.11</time>
   <time name="total">    1.50    1.53</time>
   <energy>
    <i name="e_fr_energy">   -409.83973184 </i>
    <i name="e_wo_entrp">   -409.78951830 </i>
    <i name="e_0_energy">   -409.81462507 </i>
   </energy>
  </scstep>
  <scstep>
   <time name="diag">    0.34    0.34</time>
   <time name="diis">    0.92    0.93</time>
   <time name="orth">    0.10    0.10</time>
   <time name="total">    1.48    1.50</time>
   <energy>
    <i name="e_fr_energy">   -409.88672096 </i>
    <i name="e_wo_entrp">   -409.83560846 </i>
    <i name="e_0_energy">   -409.86116471 </i>
   </energy>
  </scstep>
  <scstep>
   <time name="diag">    0.34    0.34</time>
   <time name="diis">    0.93    0.94</time>
   <time name="orth">    0.10    0.10</time>
   <time name="total">    1.50    1.52</time>
   <energy>
    <i name="e_fr_energy">   -409.89815895 </i>
    <i name="e_wo_entrp">   -409.84137090 </i>
    <i name="e_0_energy">   -409.86976492 </i>
   </energy>
  </scstep>
  <scstep>
   <time name="diag">    0.34    0.34</time>
   <time name="diis">    0.93    0.94</time>
   <time name="orth">    0.10    0.10</time>
   <time name="total">    1.50    1.51</time>
   <energy>
    <i name="e_fr_energy">   -409.90076301 </i>
    <i name="e_wo_entrp">   -409.83980716 </i>
    <i name="e_0_energy">   -409.87028509 </i>
   </energy>
  </scstep>
  <scstep>
   <time name="diag">    0.34    0.34</time>
   <time name="diis">    0.91    0.94</time>
   <time name="orth">    0.10    0.10</time>
   <time name="total">    1.48    1.51</time>
   <energy>
    <i name="e_fr_energy">   -409.90167300 </i>
    <i name="e_wo_entrp">   -409.83909112 </i>
    <i name="e_0_energy">   -409.87038206 </i>
   </energy>
  </scstep>
  <scstep>
   <time name="diag">    0.34    0.34</time>
   <time name="diis">    0.90    0.91</time>
   <time name="orth">    0.10    0.10</time>
   <time name="total">    1.47    1.49</time>
   <energy>
    <i name="e_fr_energy">   -409.90229317 </i>
    <i name="e_wo_entrp">   -409.83813194 </i>
    <i name="e_0_energy">   -409.87021255 </i>
   </energy>
  </scstep>
  <scstep>
   <time name="diag">    0.34    0.34</time>
   <time name="diis">    0.92    0.93</time>
   <time name="orth">    0.10    0.10</time>
   <time name="total">    1.49    1.50</time>
   <energy>
    <i name="e_fr_energy">   -409.90257431 </i>
    <i name="e_wo_entrp">   -409.83774304 </i>
    <i name="e_0_energy">   -409.87015868 </i>
   </energy>
  </scstep>
  <scstep>
   <time name="diag">    0.33    0.34</time>
   <time name="diis">    0.91    0.92</time>
   <time name="orth">    0.10    0.10</time>
   <time name="total">    1.48    1.49</time>
   <energy>
    <i name="e_fr_energy">   -409.90272266 </i>
    <i name="e_wo_entrp">   -409.83748884 </i>
    <i name="e_0_energy">   -409.87010575 </i>
   </energy>
  </scstep>
  <scstep>
   <time name="diag">    0.34    0.34</time>
   <time name="diis">    0.91    0.92</time>
   <time name="orth">    0.10    0.10</time>
   <time name="total">    1.48    1.49</time>
   <energy>
    <i name="e_fr_energy">   -409.90278532 </i>
    <i name="e_wo_entrp">   -409.83738944 </i>
    <i name="e_0_energy">   -409.87008738 </i>
   </energy>
  </scstep>
  <scstep>
   <time name="diag">    0.34    0.34</time>
   <time name="diis">    0.93    0.94</time>
   <time name="orth">    0.10    0.10</time>
   <time name="total">    1.50    1.52</time>
   <energy>
    <i name="e_fr_energy">   -409.90280400 </i>
    <i name="e_wo_entrp">   -409.83736515 </i>
    <i name="e_0_energy">   -409.87008457 </i>
   </energy>
  </scstep>
  <scstep>
   <time name="diag">    0.33    0.34</time>
   <time name="diis">    0.68    0.69</time>
   <time name="orth">    0.10    0.10</time>
   <time name="total">    1.20    1.22</time>
   <energy>
    <i name="alphaZ">    316.14514549 </i>
    <i name="ewald"> -14913.33829673 </i>
    <i name="hartreedc">   -137.83549775 </i>
    <i name="XCdc">   -768.92725270 </i>
    <i name="pawpsdc">  87574.98142110 </i>
    <i name="pawaedc"> -85830.71335364 </i>
    <i name="eentropy">     -0.06543582 </i>
    <i name="bandstr">   3043.72184618 </i>
    <i name="atom">  10306.12861560 </i>
    <i name="e_fr_energy">   -409.90280828 </i>
    <i name="e_wo_entrp">   -409.83737245 </i>
    <i name="e_0_energy">   -409.87009036 </i>
   </energy>
  </scstep>
  <structure>
   <crystal>
    <varray name="basis" >
     <v>      10.21149500       0.00000000       0.00000000 </v>
     <v>       0.00000000      10.21149500       0.00000000 </v>
     <v>       0.00000000       0.00000000      10.21149500 </v>
    </varray>
    <i name="volume">   1064.79986425 </i>
    <varray name="rec_basis" >
     <v>       0.09792885       0.00000000       0.00000000 </v>
     <v>       0.00000000       0.09792885       0.00000000 </v>
     <v>       0.00000000       0.00000000       0.09792885 </v>
    </varray>
   </crystal>
   <varray name="positions" >
    <v>       0.13018600       0.43132400       0.41934000 </v>
    <v>       0.82405500       0.12839400       0.45445400 </v>
    <v>       0.95856500       0.66380800       0.71229100 </v>
    <v>       0.75041200       0.34584900       0.58712800 </v>
    <v>       0.56432300       0.97448800       0.84359900 </v>
    <v>       0.96708000       0.78932800       0.90036500 </v>
    <v>       0.44742100       0.68417600       0.90443600 </v>
    <v>       0.48745400       0.55372500       0.70018700 </v>
    <v>       0.62198800       0.73546900       0.01596740 </v>
    <v>       0.10751600       0.53524100       0.61803900 </v>
    <v>       0.95087100       0.23798800       0.28875900 </v>
    <v>       0.30980800       0.51995000       0.29425900 </v>
    <v>       0.01436310       0.67429600       0.46858700 </v>
    <v>       0.50869200       0.94479960       0.21300600 </v>
    <v>       0.87969400       0.93597500       0.68695700 </v>
    <v>       0.02431150       0.45084100       0.95744100 </v>
    <v>       0.29500000       0.88314600       0.55360100 </v>
    <v>       0.16771600       0.85769200       0.35681000 </v>
    <v>       0.79449300       0.89664200       0.43484000 </v>
    <v>       0.80342100       0.73178500       0.58449800 </v>
    <v>       0.59282300       0.35048500       0.76289100 </v>
    <v>       0.99788000       0.89653000       0.49892000 </v>
    <v>       0.48114200       0.15627700       0.32321200 </v>
    <v>       0.79706900       0.00358000       0.89687300 </v>
    <v>       0.81608600       0.02215080       0.22831700 </v>
    <v>       0.46868300       0.32100200       0.96369200 </v>
    <v>       0.95509100       0.81102000       0.27277800 </v>
    <v>       0.96484500       0.13410300       0.61880800 </v>
    <v>       0.81237100       0.33980700       0.91409000 </v>
    <v>       0.77651700       0.66500600       0.33714500 </v>
    <v>       0.96055400       0.98625500       0.03972020 </v>
    <v>       0.13658000       0.43682500       0.15665000 </v>
    <v>       0.67189200       0.36167900       0.10012800 </v>
    <v>       0.10062300       0.79424300       0.07171670 </v>
    <v>       0.07707510       0.22710100       0.07367850 </v>
    <v>       0.57686900       0.75636300       0.48316300 </v>
    <v>       0.17337700       0.16000000       0.82502000 </v>
    <v>       0.88699800       0.40900300       0.11836700 </v>
    <v>       0.82300500       0.80120600       0.06201010 </v>
    <v>       0.60434200       0.51783900       0.94159900 </v>
    <v>       0.95411600       0.19862200       0.83363400 </v>
    <v>       0.68078300       0.95467800       0.64011000 </v>
    <v>       0.55784200       0.61520600       0.29306700 </v>
    <v>       0.46933400       0.52398600       0.10361800 </v>
    <v>       0.53428800       0.77912900       0.70954400 </v>
    <v>       0.15905100       0.04321060       0.61137100 </v>
    <v>       0.08073740       0.08618450       0.42982900 </v>
    <v>       0.62304500       0.16782800       0.49623900 </v>
    <v>       0.38573800       0.12716000       0.93759300 </v>
    <v>       0.06963230       0.98153300       0.81903900 </v>
    <v>       0.43497600       0.89944300       0.00120000 </v>
    <v>       0.11467000       0.80167400       0.66522000 </v>
    <v>       0.31993200       0.00739020       0.36676300 </v>
    <v>       0.18009000       0.23318600       0.29260500 </v>
    <v>       0.33917400       0.99418200       0.74860000 </v>
    <v>       0.50947200       0.35729400       0.55032000 </v>
    <v>       0.70018700       0.20225000       0.25681700 </v>
    <v>       0.23384100       0.67535100       0.45787300 </v>
    <v>       0.24744500       0.33927200       0.99477000 </v>
    <v>       0.65670400       0.55005800       0.51911600 </v>
    <v>       0.24596900       0.83058300       0.88171300 </v>
    <v>       0.66630400       0.96824800       0.08157680 </v>
    <v>       0.43284500       0.56937700       0.48553400 </v>
    <v>       0.31573100       0.11698000       0.15250100 </v>
    <v>       0.24638100       0.60678700       0.04064350 </v>
    <v>       0.33332700       0.49296200       0.86522700 </v>
    <v>       0.36951800       0.33510700       0.18146500 </v>
    <v>       0.92448600       0.44881600       0.72926000 </v>
    <v>       0.87816400       0.53577400       0.52757800 </v>
    <v>       0.06825320       0.01851100       0.22544900 </v>
    <v>       0.30542800       0.43523700       0.63421700 </v>
    <v>       0.93948200       0.30613300       0.49712500 </v>
    <v>       0.97793900       0.54015800       0.28563300 </v>
    <v>       0.73915800       0.80069100       0.80140100 </v>
    <v>       0.76376000       0.13243300       0.71884700 </v>
    <v>       0.39318500       0.79882900       0.36757400 </v>
    <v>       0.97838000       0.60869500       0.08102620 </v>
    <v>       0.15975700       0.27248300       0.57965200 </v>
    <v>       0.53756800       0.37893800       0.29661000 </v>
    <v>       0.55183400       0.13685800       0.09516550 </v>
    <v>       0.12533900       0.62589500       0.86686900 </v>
    <v>       0.12460000       0.37233800       0.77004000 </v>
    <v>       0.36850600       0.16119000       0.51090700 </v>
    <v>       0.30010500       0.67519600       0.69522500 </v>
    <v>       0.28415200       0.91051000       0.17424500 </v>
    <v>       0.81919000       0.57532100       0.93724900 </v>
    <v>       0.48016400       0.95633300       0.59377300 </v>
    <v>       0.19687200       0.01588000       0.01396000 </v>
    <v>       0.73253600       0.57903900       0.73305000 </v>
    <v>       0.33433100       0.27761200       0.76370300 </v>
    <v>       0.64727200       0.20742000       0.90311900 </v>
    <v>       0.52224200       0.15083400       0.69065300 </v>
    <v>       0.39260400       0.73299200       0.15628300 </v>
    <v>       0.76333900       0.42616900       0.33377400 </v>
    <v>       0.73645900       0.57449400       0.14064800 </v>
    <v>       0.33502900       0.33394600       0.40671100 </v>
    <v>       0.58627800       0.96965650       0.41156900 </v>
    <v>       0.70161700       0.81113800       0.23845000 </v>
    <v>       0.83910600       0.17743900       0.07032870 </v>
    <v>       0.15054200       0.66996800       0.25057100 </v>
   </varray>
  </structure>
  <varray name="forces" >
   <v>      -0.39387313       0.01864027      -0.78858361 </v>
   <v>       0.75136792      -1.88316269      -1.55335140 </v>
   <v>      -0.66744932       1.14390916       2.17113264 </v>
   <v>      -1.59195525      -0.17376776       1.38461284 </v>
   <v>       0.45221986       0.46521932       0.56476884 </v>
   <v>      -0.26967105       0.57334265      -1.89631619 </v>
   <v>      -1.48763115       0.47785917      -1.19788593 </v>
   <v>       2.38442588       0.00778629       1.31826325 </v>
   <v>      -0.15064978       0.90900236       0.31524263 </v>
   <v>       1.30562832       0.39089580      -0.00649139 </v>
   <v>      -0.79804283       0.70277692      -1.46714703 </v>
   <v>       0.83201239       1.53844253      -0.11719861 </v>
   <v>       1.03424568       2.57579865      -1.77234390 </v>
   <v>      -2.02779499      -1.08805456       1.32288426 </v>
   <v>       3.64220350      -1.26124844       0.54118673 </v>
   <v>       0.88717728      -2.91951221      -2.79898186 </v>
   <v>      -1.80131446      -2.49670569      -0.14539009 </v>
   <v>      -1.80126604       0.90402043       0.26435033 </v>
   <v>      -0.67461261       0.39949718      -0.66257015 </v>
   <v>      -2.03540361       2.18146769      -1.39794361 </v>
   <v>      -0.09462234       3.07658890      -0.62558975 </v>
   <v>       0.09014167      -0.42707364       0.28372880 </v>
   <v>       0.78437771       0.55247577      -2.15037093 </v>
   <v>      -0.41295458       0.07574066       0.27391772 </v>
   <v>       1.73780892      -1.37188563       2.37372892 </v>
   <v>       0.61544733       2.12584485       0.43989981 </v>
   <v>      -0.29124981      -0.06557039      -0.69560146 </v>
   <v>      -0.35762954      -0.19930431       1.94985934 </v>
   <v>       0.20234430       1.94393615      -1.22484219 </v>
   <v>       3.63374226      -3.44698589       4.32587849 </v>
   <v>       0.91321961       0.16140132      -0.90273766 </v>
   <v>       0.18255245      -0.35722426       1.73013239 </v>
   <v>      -2.05427584      -1.39849802       0.25056176 </v>
   <v>       1.25076235       1.13448368       0.44543962 </v>
   <v>      -1.14803411      -1.74861224      -0.39303349 </v>
   <v>       0.45248112      -0.17732400       0.86822642 </v>
   <v>       0.29688310       0.54828599       1.47433779 </v>
   <v>       0.80983848      -2.47805859       2.30484578 </v>
   <v>       2.05474674      -0.73628248      -0.21356005 </v>
   <v>      -0.06249570      -0.86328486      -2.79968323 </v>
   <v>       0.76819615      -0.11716757       0.98555468 </v>
   <v>      -0.34113300      -0.82658902      -1.68548992 </v>
   <v>      -0.92579388      -0.07738705       0.15362152 </v>
   <v>      -1.51430624      -0.08711748       1.08133460 </v>
   <v>      -0.74968339      -1.73594981       0.92805106 </v>
   <v>       2.51635208      -0.53742641       3.48259592 </v>
   <v>      -0.42292648       1.46767452      -3.01962435 </v>
   <v>      -0.39015507       1.26011531      -0.13740012 </v>
   <v>      -0.45680516      -1.86121836      -1.25131036 </v>
   <v>      -1.96302237      -2.74375125      -0.14743153 </v>
   <v>       0.29337059       0.29207550      -0.62464297 </v>
   <v>       0.50289475       1.50748779       0.90697309 </v>
   <v>      -0.36864318       2.28313040       0.26067306 </v>
   <v>      -0.49724150      -0.05861647      -0.32109187 </v>
   <v>      -1.01283051       0.71876374       2.22914453 </v>
   <v>       0.81931252       0.51678417      -0.20461210 </v>
   <v>      -0.13958743       1.04295692       1.57667590 </v>
   <v>       0.81100173      -1.72358693       2.05649458 </v>
   <v>      -1.02813646      -0.80607700      -1.38597008 </v>
   <v>      -1.24290925      -0.66589002      -0.68245842 </v>
   <v>       0.12793460      -0.98368524      -0.70596065 </v>
   <v>       1.84301277      -1.43254410      -3.93751445 </v>
   <v>      -0.50178693       0.26479870      -1.10048406 </v>
   <v>       1.51425922       2.60907277       1.55004724 </v>
   <v>       0.43061294      -0.22223920       0.87093141 </v>
   <v>       0.33604335       0.53240469      -0.98529892 </v>
   <v>      -1.46407032      -0.96061838      -1.93373711 </v>
   <v>      -1.58688388      -2.17058454       1.06564582 </v>
   <v>      -0.12956347      -3.72173279      -1.54649280 </v>
   <v>       0.16716560      -0.01132536      -0.45196383 </v>
   <v>      -0.03656976       1.93758957      -1.45425841 </v>
   <v>       1.96214147       3.02287929      -0.90404272 </v>
   <v>      -2.01914559      -1.14505702       2.13184665 </v>
   <v>      -0.07299267      -1.14308678       1.99770782 </v>
   <v>      -0.13700329       3.22208907      -0.62805192 </v>
   <v>       1.88101747      -1.02673334      -0.69331806 </v>
   <v>       0.02975617       3.78551065       0.85699476 </v>
   <v>       0.33229728      -1.34749210      -1.49138001 </v>
   <v>       2.70918541       1.38499951       2.07866967 </v>
   <v>      -1.98580396       3.12956871       0.25157308 </v>
   <v>       0.43975870       0.61222586      -1.80654159 </v>
   <v>      -0.19852958       0.23721822       2.30408768 </v>
   <v>      -0.62537926      -1.87974844       4.06007907 </v>
   <v>      -0.25589711       0.61167804      -0.01810718 </v>
   <v>      -1.58664802      -1.97109937       0.38391040 </v>
   <v>       1.09850585       0.99185193      -2.17107699 </v>
   <v>      -0.50488122       0.94330660      -1.17742524 </v>
   <v>      -2.12934611       0.27715854      -3.17694000 </v>
   <v>      -2.06200516      -0.79432461       0.56907054 </v>
   <v>       3.53377770      -1.39129026       0.24061405 </v>
   <v>       0.25517589      -4.19318157       1.39118356 </v>
   <v>      -1.43452898       0.44320911       1.78368215 </v>
   <v>       1.78750686      -2.17500170       0.06316438 </v>
   <v>       0.67704502      -1.21776589       0.15183588 </v>
   <v>      -0.61853962       1.12618369       0.55814548 </v>
   <v>      -0.41553905       2.43431432       0.57503630 </v>
   <v>       1.14020056      -0.37975950      -1.67022452 </v>
   <v>      -3.70209602       4.12086641      -1.21906726 </v>
   <v>       0.17974265       0.09548026      -0.87423690 </v>
   <v>       0.17141585      -0.27820680      -0.93256633 </v>
  </varray>
  <varray name="stress" >
   <v>     687.92732689       6.80914710      10.42902815 </v>
   <v>       6.80914680     670.73972426     -15.18160481 </v>
   <v>      10.42902797     -15.18160474     674.90603527 </v>
  </varray>
  <energy>
   <i name="e_fr_energy">   -409.90280828 </i>
   <i name="e_wo_entrp">   -409.87009036 </i>
   <i name="e_0_energy">     -0.06543582 </i>
  </energy>
  <time name="totalsc">   36.33   36.96</time>
  <eigenvalues>
   <array>
    <dimension dim="1">band</dimension>
    <dimension dim="2">kpoint</dimension>
    <dimension dim="3">spin</dimension>
    <field>eigene</field>
    <field>occ</field>
    <set>
     <set comment="spin 1">
      <set comment="kpoint 1">
       <r>   -3.0955    1.0000 </r>
       <r>   -2.0464    1.0000 </r>
       <r>   -1.9442    1.0000 </r>
       <r>   -1.7875    1.0000 </r>
       <r>   -1.7459    1.0000 </r>
       <r>   -1.5461    1.0000 </r>
       <r>   -1.3037    1.0000 </r>
       <r>   -0.9590    1.0000 </r>
       <r>   -0.7084    1.0000 </r>
       <r>   -0.6483    1.0000 </r>
       <r>   -0.5351    1.0000 </r>
       <r>   -0.3876    1.0000 </r>
       <r>   -0.3499    1.0000 </r>
       <r>   -0.2592    1.0000 </r>
       <r>   -0.1822    1.0000 </r>
       <r>   -0.0156    1.0000 </r>
       <r>    0.0071    1.0000 </r>
       <r>    0.1032    1.0000 </r>
       <r>    0.1885    1.0000 </r>
       <r>    0.6261    1.0000 </r>
       <r>    0.6805    1.0000 </r>
       <r>    1.0534    1.0000 </r>
       <r>    1.0558    1.0000 </r>
       <r>    1.1433    1.0000 </r>
       <r>    1.1900    1.0000 </r>
       <r>    1.3249    1.0000 </r>
       <r>    1.4956    1.0000 </r>
       <r>    2.1220    1.0000 </r>
       <r>    2.2186    1.0000 </r>
       <r>    2.3125    1.0000 </r>
       <r>    2.4560    1.0000 </r>
       <r>    2.5918    1.0000 </r>
       <r>    2.7216    1.0000 </r>
       <r>    3.0976    1.0000 </r>
       <r>    3.1733    1.0000 </r>
       <r>    3.2198    1.0000 </r>
       <r>    3.3273    1.0000 </r>
       <r>    3.3603    1.0000 </r>
       <r>    3.4053    1.0000 </r>
       <r>    3.4779    1.0000 </r>
       <r>    3.5100    1.0000 </r>
       <r>    3.5770    1.0000 </r>
       <r>    3.6318    1.0000 </r>
       <r>    3.6808    1.0000 </r>
       <r>    3.7431    1.0000 </r>
       <r>    3.7828    1.0000 </r>
       <r>    3.8356    1.0000 </r>
       <r>    3.9064    1.0000 </r>
       <r>    3.9350    1.0000 </r>
       <r>    4.0363    1.0000 </r>
       <r>    4.0553    1.0000 </r>
       <r>    4.1276    1.0000 </r>
       <r>    4.1720    1.0000 </r>
       <r>    4.2199    1.0000 </r>
       <r>    4.3068    1.0000 </r>
       <r>    4.3422    1.0000 </r>
       <r>    4.4424    1.0000 </r>
       <r>    4.4644    1.0000 </r>
       <r>    4.6600    1.0000 </r>
       <r>    4.7846    1.0000 </r>
       <r>    4.8000    1.0000 </r>
       <r>    4.8213    1.0000 </r>
       <r>    4.9051    1.0000 </r>
       <r>    4.9167    1.0000 </r>
       <r>    4.9893    1.0000 </r>
       <r>    5.0117    1.0000 </r>
       <r>    5.0504    1.0000 </r>
       <r>    5.1537    1.0000 </r>
       <r>    5.1769    1.0000 </r>
       <r>    5.2291    1.0000 </r>
       <r>    5.2538    1.0000 </r>
       <r>    5.2582    1.0000 </r>
       <r>    5.3099    1.0000 </r>
       <r>    5.3934    1.0000 </r>
       <r>    5.4443    1.0000 </r>
       <r>    5.5120    1.0000 </r>
       <r>    5.6028    1.0000 </r>
       <r>    5.6547    1.0000 </r>
       <r>    5.7091    1.0000 </r>
       <r>    5.8678    1.0000 </r>
       <r>    5.9825    1.0000 </r>
       <r>    7.1830    1.0000 </r>
       <r>    7.3440    1.0000 </r>
       <r>    7.3670    1.0000 </r>
       <r>    7.4969    1.0000 </r>
       <r>    7.5186    1.0000 </r>
       <r>    7.5905    1.0000 </r>
       <r>    7.6444    1.0000 </r>
       <r>    7.7313    1.0000 </r>
       <r>    7.7933    1.0000 </r>
       <r>    7.9383    1.0000 </r>
       <r>    7.9904    1.0000 </r>
       <r>    8.0330    1.0000 </r>
       <r>    8.2953    1.0000 </r>
       <r>    8.3411    1.0000 </r>
       <r>    8.3881    1.0000 </r>
       <r>    8.4315    1.0000 </r>
       <r>    8.5783    1.0000 </r>
       <r>    8.6394    1.0000 </r>
       <r>    8.6922    1.0000 </r>
       <r>    8.7129    1.0000 </r>
       <r>    8.7951    1.0000 </r>
       <r>    8.8464    1.0000 </r>
       <r>    8.8532    1.0000 </r>
       <r>    8.8885    1.0000 </r>
       <r>    8.9236    1.0000 </r>
       <r>    8.9507    1.0000 </r>
       <r>    9.0593    1.0000 </r>
       <r>    9.0726    1.0000 </r>
       <r>    9.0937    1.0000 </r>
       <r>    9.1612    1.0000 </r>
       <r>    9.2071    1.0000 </r>
       <r>    9.2261    1.0000 </r>
       <r>    9.2783    1.0000 </r>
       <r>    9.3070    1.0000 </r>
       <r>    9.3375    1.0000 </r>
       <r>    9.3792    1.0000 </r>
       <r>    9.4179    1.0000 </r>
       <r>    9.4817    1.0000 </r>
       <r>    9.5232    1.0000 </r>
       <r>    9.6347    1.0000 </r>
       <r>    9.7141    1.0000 </r>
       <r>    9.8749    1.0000 </r>
       <r>    9.9059    1.0000 </r>
       <r>    9.9538    1.0000 </r>
       <r>   10.0334    1.0000 </r>
       <r>   10.0702    1.0000 </r>
       <r>   10.1107    1.0000 </r>
       <r>   10.2059    1.0000 </r>
       <r>   10.2603    1.0000 </r>
       <r>   10.3158    1.0000 </r>
       <r>   10.3334    1.0000 </r>
       <r>   10.3587    1.0000 </r>
       <r>   10.3930    1.0000 </r>
       <r>   10.4361    1.0000 </r>
       <r>   10.4480    1.0000 </r>
       <r>   10.5240    1.0000 </r>
       <r>   10.6001    1.0000 </r>
       <r>   10.6075    1.0000 </r>
       <r>   10.6638    1.0000 </r>
       <r>   10.7002    1.0000 </r>
       <r>   10.7547    1.0000 </r>
       <r>   10.8185    1.0000 </r>
       <r>   10.8410    1.0000 </r>
       <r>   10.8617    1.0000 </r>
       <r>   10.9970    1.0000 </r>
       <r>   11.1180    1.0000 </r>
       <r>   11.1834    1.0000 </r>
       <r>   11.2511    1.0000 </r>
       <r>   11.3204    1.0000 </r>
       <r>   11.4355    1.0000 </r>
       <r>   11.4872    1.0000 </r>
       <r>   11.5619    1.0000 </r>
       <r>   11.6119    1.0000 </r>
       <r>   11.6314    1.0000 </r>
       <r>   11.6547    1.0000 </r>
       <r>   11.7016    1.0000 </r>
       <r>   11.7946    1.0000 </r>
       <r>   11.8301    1.0000 </r>
       <r>   11.8569    1.0000 </r>
       <r>   11.8725    1.0000 </r>
       <r>   11.9158    1.0000 </r>
       <r>   11.9716    1.0000 </r>
       <r>   12.0075    1.0000 </r>
       <r>   12.1075    1.0000 </r>
       <r>   12.2071    1.0000 </r>
       <r>   12.2207    1.0000 </r>
       <r>   12.2555    1.0000 </r>
       <r>   12.3341    1.0000 </r>
       <r>   12.4103    1.0000 </r>
       <r>   12.4460    1.0000 </r>
       <r>   12.8000    1.0000 </r>
       <r>   12.9177    1.0000 </r>
       <r>   12.9391    1.0000 </r>
       <r>   12.9922    1.0000 </r>
       <r>   13.0690    1.0000 </r>
       <r>   13.2015    1.0000 </r>
       <r>   13.2850    1.0000 </r>
       <r>   13.3263    1.0000 </r>
       <r>   13.4496    1.0000 </r>
       <r>   13.6871    1.0000 </r>
       <r>   13.6995    1.0000 </r>
       <r>   13.7681    1.0000 </r>
       <r>   13.8419    1.0000 </r>
       <r>   13.9562    1.0000 </r>
       <r>   14.0523    1.0000 </r>
       <r>   14.0622    1.0000 </r>
       <r>   14.1305    1.0000 </r>
       <r>   14.1472    1.0000 </r>
       <r>   14.2229    1.0000 </r>
       <r>   14.2573    1.0000 </r>
       <r>   14.3324    1.0000 </r>
       <r>   14.3849    1.0000 </r>
       <r>   14.4550    1.0000 </r>
       <r>   14.5192    1.0000 </r>
       <r>   14.5373    1.0000 </r>
       <r>   14.5534    1.0000 </r>
       <r>   14.6191    0.9996 </r>
       <r>   14.6662    0.9795 </r>
       <r>   14.7216    0.6831 </r>
       <r>   14.7646    0.2299 </r>
       <r>   14.7818    0.1103 </r>
       <r>   14.8207    0.0100 </r>
       <r>   14.9268    0.0000 </r>
       <r>   14.9759    0.0000 </r>
       <r>   15.0086    0.0000 </r>
       <r>   15.0272    0.0000 </r>
       <r>   15.0885    0.0000 </r>
       <r>   15.1098    0.0000 </r>
       <r>   15.1855    0.0000 </r>
       <r>   15.2136    0.0000 </r>
       <r>   15.2358    0.0000 </r>
       <r>   15.2478    0.0000 </r>
       <r>   15.3456    0.0000 </r>
       <r>   15.4139    0.0000 </r>
       <r>   15.4387    0.0000 </r>
       <r>   15.4583    0.0000 </r>
       <r>   15.4782    0.0000 </r>
       <r>   15.5175    0.0000 </r>
       <r>   15.5760    0.0000 </r>
       <r>   15.6207    0.0000 </r>
       <r>   15.6550    0.0000 </r>
       <r>   15.6865    0.0000 </r>
       <r>   15.7092    0.0000 </r>
       <r>   15.7496    0.0000 </r>
       <r>   15.7896    0.0000 </r>
       <r>   15.8308    0.0000 </r>
       <r>   15.8526    0.0000 </r>
       <r>   15.8812    0.0000 </r>
       <r>   15.9110    0.0000 </r>
       <r>   15.9475    0.0000 </r>
       <r>   15.9922    0.0000 </r>
       <r>   16.0081    0.0000 </r>
       <r>   16.0709    0.0000 </r>
       <r>   16.1698    0.0000 </r>
       <r>   16.1909    0.0000 </r>
       <r>   16.2373    0.0000 </r>
       <r>   16.2972    0.0000 </r>
       <r>   16.3517    0.0000 </r>
       <r>   16.3630    0.0000 </r>
       <r>   16.4168    0.0000 </r>
       <r>   16.4676    0.0000 </r>
       <r>   16.5053    0.0000 </r>
       <r>   16.5295    0.0000 </r>
       <r>   16.5987    0.0000 </r>
       <r>   16.6928    0.0000 </r>
       <r>   16.6991    0.0000 </r>
       <r>   16.7860    0.0000 </r>
       <r>   16.8521    0.0000 </r>
       <r>   16.9423    0.0000 </r>
       <r>   17.0231    0.0000 </r>
       <r>   17.8859    0.0000 </r>
       <r>   17.9980    0.0000 </r>
       <r>   18.0224    0.0000 </r>
       <r>   18.1229    0.0000 </r>
       <r>   18.2546    0.0000 </r>
       <r>   18.3700    0.0000 </r>
       <r>   18.3887    0.0000 </r>
       <r>   18.5143    0.0000 </r>
       <r>   18.5635    0.0000 </r>
       <r>   18.6665    0.0000 </r>
       <r>   18.7003    0.0000 </r>
       <r>   18.7373    0.0000 </r>
       <r>   18.7569    0.0000 </r>
       <r>   18.8106    0.0000 </r>
       <r>   18.8276    0.0000 </r>
       <r>   18.9363    0.0000 </r>
       <r>   18.9712    0.0000 </r>
       <r>   19.0129    0.0000 </r>
       <r>   19.0252    0.0000 </r>
       <r>   19.0600    0.0000 </r>
       <r>   19.0958    0.0000 </r>
       <r>   19.1320    0.0000 </r>
       <r>   19.1816    0.0000 </r>
       <r>   19.2020    0.0000 </r>
       <r>   19.2138    0.0000 </r>
       <r>   19.2476    0.0000 </r>
       <r>   19.2775    0.0000 </r>
       <r>   19.3312    0.0000 </r>
       <r>   19.3628    0.0000 </r>
       <r>   19.4005    0.0000 </r>
       <r>   19.4472    0.0000 </r>
       <r>   19.4665    0.0000 </r>
       <r>   19.5011    0.0000 </r>
       <r>   19.5884    0.0000 </r>
       <r>   19.6209    0.0000 </r>
       <r>   19.6352    0.0000 </r>
       <r>   19.6645    0.0000 </r>
       <r>   19.6997    0.0000 </r>
       <r>   19.7455    0.0000 </r>
       <r>   19.7642    0.0000 </r>
       <r>   19.7945    0.0000 </r>
       <r>   19.8238    0.0000 </r>
       <r>   19.8731    0.0000 </r>
       <r>   19.8862    0.0000 </r>
       <r>   19.9543    0.0000 </r>
       <r>   19.9966    0.0000 </r>
       <r>   20.0566    0.0000 </r>
       <r>   20.0902    0.0000 </r>
       <r>   20.1148    0.0000 </r>
       <r>   20.1849    0.0000 </r>
       <r>   20.2508    0.0000 </r>
       <r>   20.2865    0.0000 </r>
       <r>   20.4121    0.0000 </r>
      </set>
     </set>
     <set comment="spin 2">
      <set comment="kpoint 1">
       <r>   -3.0951    1.0000 </r>
       <r>   -2.0461    1.0000 </r>
       <r>   -1.9439    1.0000 </r>
       <r>   -1.7871    1.0000 </r>
       <r>   -1.7455    1.0000 </r>
       <r>   -1.5458    1.0000 </r>
       <r>   -1.3034    1.0000 </r>
       <r>   -0.9587    1.0000 </r>
       <r>   -0.7081    1.0000 </r>
       <r>   -0.6481    1.0000 </r>
       <r>   -0.5347    1.0000 </r>
       <r>   -0.3872    1.0000 </r>
       <r>   -0.3496    1.0000 </r>
       <r>   -0.2588    1.0000 </r>
       <r>   -0.1818    1.0000 </r>
       <r>   -0.0153    1.0000 </r>
       <r>    0.0074    1.0000 </r>
       <r>    0.1036    1.0000 </r>
       <r>    0.1889    1.0000 </r>
       <r>    0.6264    1.0000 </r>
       <r>    0.6808    1.0000 </r>
       <r>    1.0537    1.0000 </r>
       <r>    1.0562    1.0000 </r>
       <r>    1.1437    1.0000 </r>
       <r>    1.1904    1.0000 </r>
       <r>    1.3253    1.0000 </r>
       <r>    1.4959    1.0000 </r>
       <r>    2.1224    1.0000 </r>
       <r>    2.2189    1.0000 </r>
       <r>    2.3128    1.0000 </r>
       <r>    2.4564    1.0000 </r>
       <r>    2.5922    1.0000 </r>
       <r>    2.7219    1.0000 </r>
       <r>    3.0979    1.0000 </r>
       <r>    3.1737    1.0000 </r>
       <r>    3.2202    1.0000 </r>
       <r>    3.3276    1.0000 </r>
       <r>    3.3607    1.0000 </r>
       <r>    3.4056    1.0000 </r>
       <r>    3.4783    1.0000 </r>
       <r>    3.5104    1.0000 </r>
       <r>    3.5774    1.0000 </r>
       <r>    3.6321    1.0000 </r>
       <r>    3.6811    1.0000 </r>
       <r>    3.7435    1.0000 </r>
       <r>    3.7832    1.0000 </r>
       <r>    3.8359    1.0000 </r>
       <r>    3.9068    1.0000 </r>
       <r>    3.9354    1.0000 </r>
       <r>    4.0366    1.0000 </r>
       <r>    4.0557    1.0000 </r>
       <r>    4.1279    1.0000 </r>
       <r>    4.1724    1.0000 </r>
       <r>    4.2202    1.0000 </r>
       <r>    4.3072    1.0000 </r>
       <r>    4.3427    1.0000 </r>
       <r>    4.4427    1.0000 </r>
       <r>    4.4648    1.0000 </r>
       <r>    4.6604    1.0000 </r>
       <r>    4.7849    1.0000 </r>
       <r>    4.8003    1.0000 </r>
       <r>    4.8216    1.0000 </r>
       <r>    4.9055    1.0000 </r>
       <r>    4.9170    1.0000 </r>
       <r>    4.9896    1.0000 </r>
       <r>    5.0121    1.0000 </r>
       <r>    5.0508    1.0000 </r>
       <r>    5.1542    1.0000 </r>
       <r>    5.1772    1.0000 </r>
       <r>    5.2295    1.0000 </r>
       <r>    5.2542    1.0000 </r>
       <r>    5.2586    1.0000 </r>
       <r>    5.3103    1.0000 </r>
       <r>    5.3938    1.0000 </r>
       <r>    5.4448    1.0000 </r>
       <r>    5.5123    1.0000 </r>
       <r>    5.6032    1.0000 </r>
       <r>    5.6551    1.0000 </r>
       <r>    5.7093    1.0000 </r>
       <r>    5.8681    1.0000 </r>
       <r>    5.9829    1.0000 </r>
       <r>    7.1834    1.0000 </r>
       <r>    7.3443    1.0000 </r>
       <r>    7.3674    1.0000 </r>
       <r>    7.4972    1.0000 </r>
       <r>    7.5190    1.0000 </r>
       <r>    7.5908    1.0000 </r>
       <r>    7.6448    1.0000 </r>
       <r>    7.7316    1.0000 </r>
       <r>    7.7937    1.0000 </r>
       <r>    7.9387    1.0000 </r>
       <r>    7.9907    1.0000 </r>
       <r>    8.0334    1.0000 </r>
       <r>    8.2957    1.0000 </r>
       <r>    8.3414    1.0000 </r>
       <r>    8.3885    1.0000 </r>
       <r>    8.4318    1.0000 </r>
       <r>    8.5786    1.0000 </r>
       <r>    8.6397    1.0000 </r>
       <r>    8.6926    1.0000 </r>
       <r>    8.7133    1.0000 </r>
       <r>    8.7956    1.0000 </r>
       <r>    8.8467    1.0000 </r>
       <r>    8.8536    1.0000 </r>
       <r>    8.8888    1.0000 </r>
       <r>    8.9239    1.0000 </r>
       <r>    8.9511    1.0000 </r>
       <r>    9.0596    1.0000 </r>
       <r>    9.0730    1.0000 </r>
       <r>    9.0941    1.0000 </r>
       <r>    9.1616    1.0000 </r>
       <r>    9.2075    1.0000 </r>
       <r>    9.2266    1.0000 </r>
       <r>    9.2786    1.0000 </r>
       <r>    9.3073    1.0000 </r>
       <r>    9.3379    1.0000 </r>
       <r>    9.3796    1.0000 </r>
       <r>    9.4183    1.0000 </r>
       <r>    9.4821    1.0000 </r>
       <r>    9.5236    1.0000 </r>
       <r>    9.6350    1.0000 </r>
       <r>    9.7144    1.0000 </r>
       <r>    9.8752    1.0000 </r>
       <r>    9.9062    1.0000 </r>
       <r>    9.9542    1.0000 </r>
       <r>   10.0337    1.0000 </r>
       <r>   10.0706    1.0000 </r>
       <r>   10.1111    1.0000 </r>
       <r>   10.2063    1.0000 </r>
       <r>   10.2606    1.0000 </r>
       <r>   10.3161    1.0000 </r>
       <r>   10.3338    1.0000 </r>
       <r>   10.3591    1.0000 </r>
       <r>   10.3934    1.0000 </r>
       <r>   10.4365    1.0000 </r>
       <r>   10.4484    1.0000 </r>
       <r>   10.5244    1.0000 </r>
       <r>   10.6004    1.0000 </r>
       <r>   10.6078    1.0000 </r>
       <r>   10.6641    1.0000 </r>
       <r>   10.7006    1.0000 </r>
       <r>   10.7551    1.0000 </r>
       <r>   10.8188    1.0000 </r>
       <r>   10.8414    1.0000 </r>
       <r>   10.8621    1.0000 </r>
       <r>   10.9975    1.0000 </r>
       <r>   11.1184    1.0000 </r>
       <r>   11.1837    1.0000 </r>
       <r>   11.2515    1.0000 </r>
       <r>   11.3207    1.0000 </r>
       <r>   11.4359    1.0000 </r>
       <r>   11.4875    1.0000 </r>
       <r>   11.5623    1.0000 </r>
       <r>   11.6122    1.0000 </r>
       <r>   11.6318    1.0000 </r>
       <r>   11.6551    1.0000 </r>
       <r>   11.7019    1.0000 </r>
       <r>   11.7950    1.0000 </r>
       <r>   11.8304    1.0000 </r>
       <r>   11.8573    1.0000 </r>
       <r>   11.8729    1.0000 </r>
       <r>   11.9161    1.0000 </r>
       <r>   11.9720    1.0000 </r>
       <r>   12.0080    1.0000 </r>
       <r>   12.1080    1.0000 </r>
       <r>   12.2075    1.0000 </r>
       <r>   12.2211    1.0000 </r>
       <r>   12.2559    1.0000 </r>
       <r>   12.3345    1.0000 </r>
       <r>   12.4107    1.0000 </r>
       <r>   12.4464    1.0000 </r>
       <r>   12.8003    1.0000 </r>
       <r>   12.9181    1.0000 </r>
       <r>   12.9395    1.0000 </r>
       <r>   12.9925    1.0000 </r>
       <r>   13.0693    1.0000 </r>
       <r>   13.2018    1.0000 </r>
       <r>   13.2854    1.0000 </r>
       <r>   13.3267    1.0000 </r>
       <r>   13.4500    1.0000 </r>
       <r>   13.6875    1.0000 </r>
       <r>   13.6999    1.0000 </r>
       <r>   13.7685    1.0000 </r>
       <r>   13.8422    1.0000 </r>
       <r>   13.9565    1.0000 </r>
       <r>   14.0527    1.0000 </r>
       <r>   14.0626    1.0000 </r>
       <r>   14.1309    1.0000 </r>
       <r>   14.1475    1.0000 </r>
       <r>   14.2232    1.0000 </r>
       <r>   14.2576    1.0000 </r>
       <r>   14.3327    1.0000 </r>
       <r>   14.3852    1.0000 </r>
       <r>   14.4553    1.0000 </r>
       <r>   14.5195    1.0000 </r>
       <r>   14.5377    1.0000 </r>
       <r>   14.5537    1.0000 </r>
[...]
       <r>    -1.1679     0.9458     6.9999 </r>
       <r>    -1.0817     0.0037     7.0003 </r>
       <r>    -0.9955     1.7306     7.1494 </r>
       <r>    -0.9093     8.9295     7.9191 </r>
       <r>    -0.8231     0.9445     8.0005 </r>
       <r>    -0.7369     2.4719     8.2136 </r>
       <r>    -0.6507    13.9808     9.4186 </r>
       <r>    -0.5645     8.9555    10.1906 </r>
       <r>    -0.4783     8.8081    10.9498 </r>
       <r>    -0.3921     7.0734    11.5595 </r>
       <r>    -0.3059    16.3902    12.9722 </r>
       <r>    -0.2197    12.0077    14.0072 </r>
       <r>    -0.1335    10.5249    14.9144 </r>
       <r>    -0.0473     3.8112    15.2429 </r>
       <r>     0.0389    17.8761    16.7837 </r>
       <r>     0.1251    11.3671    17.7635 </r>
       <r>     0.2113    11.2765    18.7355 </r>
       <r>     0.2974     3.0567    18.9989 </r>
       <r>     0.3836     0.0124    19.0000 </r>
       <r>     0.4698     0.0001    19.0000 </r>
       <r>     0.5560     0.2717    19.0234 </r>
       <r>     0.6422     9.1251    19.8100 </r>
       <r>     0.7284    12.7505    20.9090 </r>
       <r>     0.8146     1.0551    20.9999 </r>
       <r>     0.9008     0.0010    21.0000 </r>
       <r>     0.9870     0.6359    21.0548 </r>
       <r>     1.0732    15.8130    22.4178 </r>
       <r>     1.1594    16.7154    23.8586 </r>
       <r>     1.2456    12.6716    24.9508 </r>
       <r>     1.3318     7.2129    25.5725 </r>
       <r>     1.4180     5.0678    26.0093 </r>
       <r>     1.5042     6.7618    26.5922 </r>
       <r>     1.5904     4.6876    26.9962 </r>
       <r>     1.6766     0.0439    27.0000 </r>
       <r>     1.7628     0.0000    27.0000 </r>
       <r>     1.8489     0.0000    27.0000 </r>
       <r>     1.9351     0.0000    27.0000 </r>
       <r>     2.0213     0.0247    27.0021 </r>
       <r>     2.1075     3.8939    27.3378 </r>
       <r>     2.1937    10.1963    28.2166 </r>
       <r>     2.2799    10.6462    29.1343 </r>
       <r>     2.3661     9.3441    29.9397 </r>
       <r>     2.4523     5.9658    30.4539 </r>
       <r>     2.5385     6.9639    31.0542 </r>
       <r>     2.6247     8.9278    31.8237 </r>
       <r>     2.7109     6.4190    32.3770 </r>
       <r>     2.7971     7.0336    32.9832 </r>
       <r>     2.8833     0.1945    33.0000 </r>
       <r>     2.9695     0.0017    33.0001 </r>
       <r>     3.0557     1.3514    33.1166 </r>
       <r>     3.1419    11.3023    34.0908 </r>
       <r>     3.2281    16.6849    35.5290 </r>
       <r>     3.3143    10.6714    36.4488 </r>
       <r>     3.4005    21.5543    38.3066 </r>
       <r>     3.4866    17.7739    39.8387 </r>
       <r>     3.5728    18.7458    41.4544 </r>
       <r>     3.6590    18.4064    43.0410 </r>
       <r>     3.7452    18.4498    44.6312 </r>
       <r>     3.8314    20.2267    46.3747 </r>
       <r>     3.9176    17.8966    47.9173 </r>
       <r>     4.0038    15.0940    49.2183 </r>
       <r>     4.0900    19.7475    50.9204 </r>
       <r>     4.1762    19.0604    52.5633 </r>
       <r>     4.2624    16.5775    53.9922 </r>
       <r>     4.3486    16.9120    55.4499 </r>
       <r>     4.4348    13.3984    56.6048 </r>
       <r>     4.5210    15.3831    57.9307 </r>
       <r>     4.6072     1.5691    58.0660 </r>
       <r>     4.6934     8.8694    58.8305 </r>
       <r>     4.7796    11.6591    59.8354 </r>
       <r>     4.8658    25.7529    62.0552 </r>
       <r>     4.9520    21.7999    63.9342 </r>
       <r>     5.0381    24.4936    66.0454 </r>
       <r>     5.1243    13.9595    67.2487 </r>
       <r>     5.2105    23.4019    69.2658 </r>
       <r>     5.2967    32.5351    72.0701 </r>
       <r>     5.3829    15.4161    73.3989 </r>
       <r>     5.4691    16.8204    74.8487 </r>
       <r>     5.5553    13.0927    75.9773 </r>
       <r>     5.6415    14.6319    77.2384 </r>
       <r>     5.7277    16.7011    78.6780 </r>
       <r>     5.8139     4.4428    79.0609 </r>
       <r>     5.9001     8.8819    79.8265 </r>
       <r>     5.9863     8.2498    80.5376 </r>
       <r>     6.0725     5.2993    80.9944 </r>
       <r>     6.1587     0.0655    81.0000 </r>
       <r>     6.2449     0.0000    81.0000 </r>
       <r>     6.3311     0.0000    81.0000 </r>
       <r>     6.4173     0.0000    81.0000 </r>
       <r>     6.5035     0.0000    81.0000 </r>
       <r>     6.5896     0.0000    81.0000 </r>
       <r>     6.6758     0.0000    81.0000 </r>
       <r>     6.7620     0.0000    81.0000 </r>
       <r>     6.8482     0.0000    81.0000 </r>
       <r>     6.9344     0.0000    81.0000 </r>
       <r>     7.0206     0.0000    81.0000 </r>
       <r>     7.1068     0.1758    81.0152 </r>
       <r>     7.1930     6.8682    81.6072 </r>
       <r>     7.2792     4.9723    82.0357 </r>
       <r>     7.3654    13.5304    83.2020 </r>
       <r>     7.4516    10.6148    84.1169 </r>
       <r>     7.5378    17.7235    85.6446 </r>
       <r>     7.6240    16.9180    87.1028 </r>
       <r>     7.7102    13.2949    88.2488 </r>
       <r>     7.7964    14.4824    89.4971 </r>
       <r>     7.8826     6.4315    90.0514 </r>
       <r>     7.9688    12.2071    91.1036 </r>
       <r>     8.0550    18.4479    92.6937 </r>
       <r>     8.1411     3.5399    92.9988 </r>
       <r>     8.2273     0.3284    93.0271 </r>
       <r>     8.3135    10.4251    93.9257 </r>
       <r>     8.3997    21.2303    95.7557 </r>
       <r>     8.4859    13.7222    96.9385 </r>
       <r>     8.5721     5.9979    97.4554 </r>
       <r>     8.6583    16.9249    98.9143 </r>
       <r>     8.7445    22.0664   100.8163 </r>
       <r>     8.8307    19.2809   102.4782 </r>
       <r>     8.9169    32.9011   105.3141 </r>
       <r>     9.0031    19.5594   107.0000 </r>
       <r>     9.0893    22.5474   108.9434 </r>
       <r>     9.1755    22.6872   110.8990 </r>
       <r>     9.2617    26.7593   113.2055 </r>
       <r>     9.3479    28.5780   115.6687 </r>
       <r>     9.4341    23.5643   117.6998 </r>
       <r>     9.5203    18.8073   119.3209 </r>
       <r>     9.6065    10.2065   120.2007 </r>
       <r>     9.6926    11.7933   121.2172 </r>
       <r>     9.7788     8.7232   121.9691 </r>
       <r>     9.8650     6.3304   122.5147 </r>
       <r>     9.9512    21.4019   124.3595 </r>
       <r>    10.0374    15.8411   125.7249 </r>
       <r>    10.1236    21.4766   127.5760 </r>
       <r>    10.2098    12.0447   128.6142 </r>
       <r>    10.2960    19.6004   130.3037 </r>
       <r>    10.3822    32.3962   133.0961 </r>
       <r>    10.4684    28.6995   135.5698 </r>
       <r>    10.5546    16.2084   136.9669 </r>
       <r>    10.6408    23.5671   138.9982 </r>
       <r>    10.7270    22.6759   140.9528 </r>
       <r>    10.8132    20.0520   142.6811 </r>
       <r>    10.8994    24.5208   144.7947 </r>
       <r>    10.9856     6.6495   145.3678 </r>
       <r>    11.0718     8.2244   146.0767 </r>
       <r>    11.1580    11.9366   147.1056 </r>
       <r>    11.2442    14.8904   148.3891 </r>
       <r>    11.3303    13.9987   149.5957 </r>
       <r>    11.4165     8.3018   150.3112 </r>
       <r>    11.5027    15.9306   151.6844 </r>
       <r>    11.5889    17.2492   153.1712 </r>
       <r>    11.6751    30.3903   155.7906 </r>
       <r>    11.7613    15.7949   157.1521 </r>
       <r>    11.8475    24.5777   159.2705 </r>
       <r>    11.9337    29.2148   161.7887 </r>
       <r>    12.0199    20.4272   163.5494 </r>
       <r>    12.1061    10.7831   164.4788 </r>
       <r>    12.1923    12.6391   165.5683 </r>
       <r>    12.2785    24.9724   167.7208 </r>
       <r>    12.3647    13.7888   168.9093 </r>
       <r>    12.4509    17.5543   170.4224 </r>
       <r>    12.5371     6.6399   170.9947 </r>
       <r>    12.6233     0.0618   171.0000 </r>
       <r>    12.7095     0.0592   171.0051 </r>
       <r>    12.7957     5.1404   171.4482 </r>
       <r>    12.8818     8.6604   172.1947 </r>
       <r>    12.9680    20.4628   173.9584 </r>
       <r>    13.0542    15.4913   175.2937 </r>
       <r>    13.1404     8.4152   176.0190 </r>
       <r>    13.2266     9.1647   176.8090 </r>
       <r>    13.3128    15.3008   178.1278 </r>
       <r>    13.3990    10.7392   179.0535 </r>
       <r>    13.4852     9.1270   179.8402 </r>
       <r>    13.5714     1.8582   180.0004 </r>
       <r>    13.6576     3.6610   180.3159 </r>
       <r>    13.7438    20.4995   182.0829 </r>
       <r>    13.8300    14.3951   183.3236 </r>
       <r>    13.9162     9.1075   184.1087 </r>
       <r>    14.0024    10.6248   185.0245 </r>
       <r>    14.0886    20.3348   186.7772 </r>
       <r>    14.1748    23.0725   188.7659 </r>
       <r>    14.2610    19.1345   190.4152 </r>
       <r>    14.3472    15.9992   191.7943 </r>
       <r>    14.4333    16.1656   193.1877 </r>
       <r>    14.5195    20.3148   194.9387 </r>
       <r>    14.6057    27.2544   197.2879 </r>
       <r>    14.6919    19.3564   198.9563 </r>
       <r>    14.7781    25.4058   201.1461 </r>
       <r>    14.8643    20.5275   202.9155 </r>
       <r>    14.9505    13.0852   204.0433 </r>
       <r>    15.0367    27.7070   206.4315 </r>
       <r>    15.1229    24.1324   208.5116 </r>
       <r>    15.2091    23.5928   210.5452 </r>
       <r>    15.2953    27.6260   212.9264 </r>
       <r>    15.3815    13.4794   214.0882 </r>
       <r>    15.4677    31.2757   216.7840 </r>
       <r>    15.5539    27.0878   219.1188 </r>
       <r>    15.6401    23.2239   221.1206 </r>
       <r>    15.7263    31.2438   223.8137 </r>
       <r>    15.8125    27.1100   226.1504 </r>
       <r>    15.8987    33.1337   229.0063 </r>
       <r>    15.9848    28.9946   231.5055 </r>
       <r>    16.0710    22.5502   233.4492 </r>
       <r>    16.1572    12.5303   234.5293 </r>
       <r>    16.2434    23.3255   236.5398 </r>
       <r>    16.3296    19.8745   238.2529 </r>
       <r>    16.4158    25.5632   240.4563 </r>
       <r>    16.5020    23.7303   242.5017 </r>
       <r>    16.5882    21.1286   244.3229 </r>
       <r>    16.6744    13.9011   245.5210 </r>
       <r>    16.7606    19.0968   247.1671 </r>
       <r>    16.8468    14.2408   248.3946 </r>
       <r>    16.9330    11.5078   249.3865 </r>
       <r>    17.0192    12.1871   250.4369 </r>
       <r>    17.1054     6.4137   250.9898 </r>
       <r>    17.1916     0.1188   251.0000 </r>
       <r>    17.2778     0.0000   251.0000 </r>
       <r>    17.3640     0.0000   251.0000 </r>
       <r>    17.4502     0.0000   251.0000 </r>
       <r>    17.5363     0.0000   251.0000 </r>
       <r>    17.6225     0.0000   251.0000 </r>
       <r>    17.7087     0.0000   251.0000 </r>
       <r>    17.7949     0.0568   251.0049 </r>
       <r>    17.8811     5.0797   251.4427 </r>
       <r>    17.9673     9.2175   252.2372 </r>
       <r>    18.0535    17.8091   253.7723 </r>
       <r>    18.1397    10.5098   254.6782 </r>
       <r>    18.2259     6.0946   255.2035 </r>
       <r>    18.3121     9.3728   256.0114 </r>
       <r>    18.3983    15.9833   257.3890 </r>
       <r>    18.4845     9.4699   258.2053 </r>
       <r>    18.5707    15.2844   259.5227 </r>
       <r>    18.6569    11.4012   260.5055 </r>
       <r>    18.7431    26.7275   262.8092 </r>
       <r>    18.8293    27.5950   265.1878 </r>
       <r>    18.9155    13.2037   266.3258 </r>
       <r>    19.0017    24.5594   268.4427 </r>
       <r>    19.0879    32.4562   271.2403 </r>
       <r>    19.1740    27.8086   273.6372 </r>
       <r>    19.2602    36.7803   276.8075 </r>
       <r>    19.3464    25.6184   279.0157 </r>
       <r>    19.4326    26.7044   281.3174 </r>
       <r>    19.5188    26.7418   283.6224 </r>
       <r>    19.6050    18.7923   285.2422 </r>
       <r>    19.6912    34.0036   288.1731 </r>
       <r>    19.7774    31.1090   290.8546 </r>
       <r>    19.8636    30.8061   293.5099 </r>
       <r>    19.9498    22.9266   295.4860 </r>
       <r>    20.0360    19.8815   297.1997 </r>
       <r>    20.1222    26.4694   299.4812 </r>
       <r>    20.2084    19.4591   301.1585 </r>
       <r>    20.2946    25.3527   303.3438 </r>
       <r>    20.3808     7.5656   303.9959 </r>
       <r>    20.4670     0.0479   304.0000 </r>
       <r>    20.5532     0.0000   304.0000 </r>
       <r>    20.6394     0.0000   304.0000 </r>
       <r>    20.7255     0.0000   304.0000 </r>
       <r>    20.8117     0.0000   304.0000 </r>
       <r>    20.8979     0.0000   304.0000 </r>
       <r>    20.9841     0.0000   304.0000 </r>
       <r>    21.0703     0.0000   304.0000 </r>
       <r>    21.1565     0.0000   304.0000 </r>
       <r>    21.2427     0.0000   304.0000 </r>
       <r>    21.3289     0.0000   304.0000 </r>
       <r>    21.4151     0.0000   304.0000 </r>
       <r>    21.5013     0.0000   304.0000 </r>
       <r>    21.5875     0.0000   304.0000 </r>
      </set>
     </set>
    </array>
   </total>
  </dos>
 </calculation>
 <structure name="finalpos" >
  <crystal>
   <varray name="basis" >
    <v>      10.21149500       0.00000000       0.00000000 </v>
    <v>       0.00000000      10.21149500       0.00000000 </v>
    <v>       0.00000000       0.00000000      10.21149500 </v>
   </varray>
   <i name="volume">   1064.79986425 </i>
   <varray name="rec_basis" >
    <v>       0.09792885       0.00000000       0.00000000 </v>
    <v>       0.00000000       0.09792885       0.00000000 </v>
    <v>       0.00000000       0.00000000       0.09792885 </v>
   </varray>
  </crystal>
  <varray name="positions" >
   <v>       0.13018600       0.43132400       0.41934000 </v>
   <v>       0.82405500       0.12839400       0.45445400 </v>
   <v>       0.95856500       0.66380800       0.71229100 </v>
   <v>       0.75041200       0.34584900       0.58712800 </v>
   <v>       0.56432300       0.97448800       0.84359900 </v>
   <v>       0.96708000       0.78932800       0.90036500 </v>
   <v>       0.44742100       0.68417600       0.90443600 </v>
   <v>       0.48745400       0.55372500       0.70018700 </v>
   <v>       0.62198800       0.73546900       0.01596740 </v>
   <v>       0.10751600       0.53524100       0.61803900 </v>
   <v>       0.95087100       0.23798800       0.28875900 </v>
   <v>       0.30980800       0.51995000       0.29425900 </v>
   <v>       0.01436310       0.67429600       0.46858700 </v>
   <v>       0.50869200       0.94479960       0.21300600 </v>
   <v>       0.87969400       0.93597500       0.68695700 </v>
   <v>       0.02431150       0.45084100       0.95744100 </v>
   <v>       0.29500000       0.88314600       0.55360100 </v>
   <v>       0.16771600       0.85769200       0.35681000 </v>
   <v>       0.79449300       0.89664200       0.43484000 </v>
   <v>       0.80342100       0.73178500       0.58449800 </v>
   <v>       0.59282300       0.35048500       0.76289100 </v>
   <v>       0.99788000       0.89653000       0.49892000 </v>
   <v>       0.48114200       0.15627700       0.32321200 </v>
   <v>       0.79706900       0.00358000       0.89687300 </v>
   <v>       0.81608600       0.02215080       0.22831700 </v>
   <v>       0.46868300       0.32100200       0.96369200 </v>
   <v>       0.95509100       0.81102000       0.27277800 </v>
   <v>       0.96484500       0.13410300       0.61880800 </v>
   <v>       0.81237100       0.33980700       0.91409000 </v>
   <v>       0.77651700       0.66500600       0.33714500 </v>
   <v>       0.96055400       0.98625500       0.03972020 </v>
   <v>       0.13658000       0.43682500       0.15665000 </v>
   <v>       0.67189200       0.36167900       0.10012800 </v>
   <v>       0.10062300       0.79424300       0.07171670 </v>
   <v>       0.07707510       0.22710100       0.07367850 </v>
   <v>       0.57686900       0.75636300       0.48316300 </v>
   <v>       0.17337700       0.16000000       0.82502000 </v>
   <v>       0.88699800       0.40900300       0.11836700 </v>
   <v>       0.82300500       0.80120600       0.06201010 </v>
   <v>       0.60434200       0.51783900       0.94159900 </v>
   <v>       0.95411600       0.19862200       0.83363400 </v>
   <v>       0.68078300       0.95467800       0.64011000 </v>
   <v>       0.55784200       0.61520600       0.29306700 </v>
   <v>       0.46933400       0.52398600       0.10361800 </v>
   <v>       0.53428800       0.77912900       0.70954400 </v>
   <v>       0.15905100       0.04321060       0.61137100 </v>
   <v>       0.08073740       0.08618450       0.42982900 </v>
   <v>       0.62304500       0.16782800       0.49623900 </v>
   <v>       0.38573800       0.12716000       0.93759300 </v>
   <v>       0.06963230       0.98153300       0.81903900 </v>
   <v>       0.43497600       0.89944300       0.00120000 </v>
   <v>       0.11467000       0.80167400       0.66522000 </v>
   <v>       0.31993200       0.00739020       0.36676300 </v>
   <v>       0.18009000       0.23318600       0.29260500 </v>
   <v>       0.33917400       0.99418200       0.74860000 </v>
   <v>       0.50947200       0.35729400       0.55032000 </v>
   <v>       0.70018700       0.20225000       0.25681700 </v>
   <v>       0.23384100       0.67535100       0.45787300 </v>
   <v>       0.24744500       0.33927200       0.99477000 </v>
   <v>       0.65670400       0.55005800       0.51911600 </v>
   <v>       0.24596900       0.83058300       0.88171300 </v>
   <v>       0.66630400       0.96824800       0.08157680 </v>
   <v>       0.43284500       0.56937700       0.48553400 </v>
   <v>       0.31573100       0.11698000       0.15250100 </v>
   <v>       0.24638100       0.60678700       0.04064350 </v>
   <v>       0.33332700       0.49296200       0.86522700 </v>
   <v>       0.36951800       0.33510700       0.18146500 </v>
   <v>       0.92448600       0.44881600       0.72926000 </v>
   <v>       0.87816400       0.53577400       0.52757800 </v>
   <v>       0.06825320       0.01851100       0.22544900 </v>
   <v>       0.30542800       0.43523700       0.63421700 </v>
   <v>       0.93948200       0.30613300       0.49712500 </v>
   <v>       0.97793900       0.54015800       0.28563300 </v>
   <v>       0.73915800       0.80069100       0.80140100 </v>
   <v>       0.76376000       0.13243300       0.71884700 </v>
   <v>       0.39318500       0.79882900       0.36757400 </v>
   <v>       0.97838000       0.60869500       0.08102620 </v>
   <v>       0.15975700       0.27248300       0.57965200 </v>
   <v>       0.53756800       0.37893800       0.29661000 </v>
   <v>       0.55183400       0.13685800       0.09516550 </v>
   <v>       0.12533900       0.62589500       0.86686900 </v>
   <v>       0.12460000       0.37233800       0.77004000 </v>
   <v>       0.36850600       0.16119000       0.51090700 </v>
   <v>       0.30010500       0.67519600       0.69522500 </v>
   <v>       0.28415200       0.91051000       0.17424500 </v>
   <v>       0.81919000       0.57532100       0.93724900 </v>
   <v>       0.48016400       0.95633300       0.59377300 </v>
   <v>       0.19687200       0.01588000       0.01396000 </v>
   <v>       0.73253600       0.57903900       0.73305000 </v>
   <v>       0.33433100       0.27761200       0.76370300 </v>
   <v>       0.64727200       0.20742000       0.90311900 </v>
   <v>       0.52224200       0.15083400       0.69065300 </v>
   <v>       0.39260400       0.73299200       0.15628300 </v>
   <v>       0.76333900       0.42616900       0.33377400 </v>
   <v>       0.73645900       0.57449400       0.14064800 </v>
   <v>       0.33502900       0.33394600       0.40671100 </v>
   <v>       0.58627800       0.96965650       0.41156900 </v>
   <v>       0.70161700       0.81113800       0.23845000 </v>
   <v>       0.83910600       0.17743900       0.07032870 </v>
   <v>       0.15054200       0.66996800       0.25057100 </v>
  </varray>
 </structure>
</modeling>
