unknown system                          
           1
    10.211495    0.000000    0.000000
     0.000000   10.211495    0.000000
     0.000000    0.000000   10.211495
   Si
 100
Direct configuration=     1
   0.13018600  0.43132400  0.41934000
   0.82405500  0.12839400  0.45445400
   0.95856500  0.66380800  0.71229100
   0.75041200  0.34584900  0.58712800
   0.56432300  0.97448800  0.84359900
   0.96708000  0.78932800  0.90036500
   0.44742100  0.68417600  0.90443600
   0.48745400  0.55372500  0.70018700
   0.62198800  0.73546900  0.01596740
   0.10751600  0.53524100  0.61803900
   0.95087100  0.23798800  0.28875900
   0.30980800  0.51995000  0.29425900
   0.01436310  0.67429600  0.46858700
   0.50869200  0.94479960  0.21300600
   0.87969400  0.93597500  0.68695700
   0.02431150  0.45084100  0.95744100
   0.29500000  0.88314600  0.55360100
   0.16771600  0.85769200  0.35681000
   0.79449300  0.89664200  0.43484000
   0.80342100  0.73178500  0.58449800
   0.59282300  0.35048500  0.76289100
   0.99788000  0.89653000  0.49892000
   0.48114200  0.15627700  0.32321200
   0.79706900  0.00358000  0.89687300
   0.81608600  0.02215080  0.22831700
   0.46868300  0.32100200  0.96369200
   0.95509100  0.81102000  0.27277800
   0.96484500  0.13410300  0.61880800
   0.81237100  0.33980700  0.91409000
   0.77651700  0.66500600  0.33714500
   0.96055400  0.98625500  0.03972020
   0.13658000  0.43682500  0.15665000
   0.67189200  0.36167900  0.10012800
   0.10062300  0.79424300  0.07171670
   0.07707510  0.22710100  0.07367850
   0.57686900  0.75636300  0.48316300
   0.17337700  0.16000000  0.82502000
   0.88699800  0.40900300  0.11836700
   0.82300500  0.80120600  0.06201010
   0.60434200  0.51783900  0.94159900
   0.95411600  0.19862200  0.83363400
   0.68078300  0.95467800  0.64011000
   0.55784200  0.61520600  0.29306700
   0.46933400  0.52398600  0.10361800
   0.53428800  0.77912900  0.70954400
   0.15905100  0.04321060  0.61137100
   0.08073740  0.08618450  0.42982900
   0.62304500  0.16782800  0.49623900
   0.38573800  0.12716000  0.93759300
   0.06963230  0.98153300  0.81903900
   0.43497600  0.89944300  0.00120000
   0.11467000  0.80167400  0.66522000
   0.31993200  0.00739020  0.36676300
   0.18009000  0.23318600  0.29260500
   0.33917400  0.99418200  0.74860000
   0.50947200  0.35729400  0.55032000
   0.70018700  0.20225000  0.25681700
   0.23384100  0.67535100  0.45787300
   0.24744500  0.33927200  0.99477000
   0.65670400  0.55005800  0.51911600
   0.24596900  0.83058300  0.88171300
   0.66630400  0.96824800  0.08157680
   0.43284500  0.56937700  0.48553400
   0.31573100  0.11698000  0.15250100
   0.24638100  0.60678700  0.04064350
   0.33332700  0.49296200  0.86522700
   0.36951800  0.33510700  0.18146500
   0.92448600  0.44881600  0.72926000
   0.87816400  0.53577400  0.52757800
   0.06825320  0.01851100  0.22544900
   0.30542800  0.43523700  0.63421700
   0.93948200  0.30613300  0.49712500
   0.97793900  0.54015800  0.28563300
   0.73915800  0.80069100  0.80140100
   0.76376000  0.13243300  0.71884700
   0.39318500  0.79882900  0.36757400
   0.97838000  0.60869500  0.08102620
   0.15975700  0.27248300  0.57965200
   0.53756800  0.37893800  0.29661000
   0.55183400  0.13685800  0.09516550
   0.12533900  0.62589500  0.86686900
   0.12460000  0.37233800  0.77004000
   0.36850600  0.16119000  0.51090700
   0.30010500  0.67519600  0.69522500
   0.28415200  0.91051000  0.17424500
   0.81919000  0.57532100  0.93724900
   0.48016400  0.95633300  0.59377300
   0.19687200  0.01588000  0.01396000
   0.73253600  0.57903900  0.73305000
   0.33433100  0.27761200  0.76370300
   0.64727200  0.20742000  0.90311900
   0.52224200  0.15083400  0.69065300
   0.39260400  0.73299200  0.15628300
   0.76333900  0.42616900  0.33377400
   0.73645900  0.57449400  0.14064800
   0.33502900  0.33394600  0.40671100
   0.58627800  0.96965650  0.41156900
   0.70161700  0.81113800  0.23845000
   0.83910600  0.17743900  0.07032870
   0.15054200  0.66996800  0.25057100
