BEGIN_CFG
 Size
    100
 Supercell
        10.211495      0.000000      0.000000
         0.000000     10.211495      0.000000
         0.000000      0.000000     10.211495
 AtomData:  id type       cartes_x      cartes_y      cartes_z           fx          fy          fz
             1    0      10.126320      7.392550      0.164390     1.599288    2.391860   -1.076644
             2    0       5.836250      7.497710      5.179570    -0.223729   -0.301645   -0.183358
             3    0       0.352960      0.037290      7.303570    -2.083468    3.701406   -1.247901
             4    0       9.994970      1.765670      8.714820     3.721081    3.445126   -1.792549
             5    0       3.344040      0.123940      6.430830    -1.874331    0.633722   -0.890491
             6    0       4.457910      8.153760      7.006900     2.525444    2.955447    0.886334
             7    0       3.602380      6.077050      5.156200    -0.430812    3.094956   -0.352853
             8    0       4.563090      4.791900      8.877070    -0.118484   -0.529159    1.140497
             9    0       6.980110      7.632900      1.989120     0.409936    1.038131    2.318460
            10    0       4.550280      0.450620      0.129960    -1.365500   -2.039592    2.684119
            11    0      10.190920      1.560520      5.591080    -1.340729   -2.204430   -0.443724
            12    0       3.534240      9.062220      1.655600     0.735376    0.768636    0.122126
            13    0       0.443130      4.258560      2.573660    -0.806607    0.762139   -1.579728
            14    0       2.382040      4.021750      0.876730     1.072655    1.539492    2.670763
            15    0       9.980780      2.045070      3.293670    -1.538485    2.737012   -0.955728
            16    0      10.000290      5.209350      0.025340     0.157473   -2.048382    0.176173
            17    0       0.908050      0.279930      3.566120     0.928622   -3.008841    1.446311
            18    0       1.269850      4.158600      8.739940    -3.216944    2.062908   -0.509588
            19    0       6.333720      3.197220      2.583120    -2.095715    2.618118   -1.043100
            20    0       6.800130      4.996800      5.190290    -2.431658    1.121745    1.046076
            21    0       7.163340      2.989800      8.719720     0.332968   -3.990286   -2.315561
            22    0       1.239600      9.152890      5.727380    -0.170406    0.611900   -2.847401
            23    0       4.001580      8.285230      9.174560     0.510639    1.215722   -0.450527
            24    0       6.346050      1.769360      0.719720    -0.412307    0.677822   -1.272192
            25    0       7.019200     10.095590      1.336350     0.480949   -3.204281    1.807025
            26    0       4.495390      4.276570      4.802560     2.534331   -3.601607   -0.306948
            27    0       2.088950      1.887970      2.540740     0.510696    1.038239   -2.201522
            28    0       2.135260      1.689730      4.862320     0.837667   -0.772290    2.907922
            29    0       2.232430      0.868140      0.392900     1.508674   -0.783558    0.458685
            30    0       8.790000      5.145020      6.065320     0.258129    0.871250    1.910536
            31    0       8.760700      0.130410      3.321530    -3.606013    3.539588   -0.202811
            32    0       8.303540      0.690330      7.890700     0.736230   -1.534152   -3.307683
            33    0       8.499840      6.301720      4.085750    -1.534804   -1.801053    0.950352
            34    0       6.523250      1.319590      3.544080     4.350058   -3.724164    1.536751
            35    0       8.055330      3.775950      3.747680     1.167690   -0.496237   -0.006909
            36    0       1.033050      6.000680      4.289080    -0.924951   -2.443140   -0.390229
            37    0       8.687150      0.820160     10.059090    -1.241005   -1.814764    1.731342
            38    0       8.250600      1.979500      1.704510     1.683434    0.552987    3.816107
            39    0       0.459160      9.758850      9.645370     0.138162    0.546697    0.916241
            40    0       8.368660      2.514850      6.651530    -0.067892    2.095057   -0.779225
            41    0       8.820880      3.159390     10.163070     1.174936    1.327233    1.413493
            42    0       1.922170      7.066200      6.185150    -1.765935    0.346169   -0.485294
            43    0       6.246890      5.753980      3.071850     0.791788   -1.793606   -0.364971
            44    0       9.498650      6.814730      2.334350     0.960289   -0.781198   -1.881626
            45    0       5.596480      3.753210      7.046340    -0.360382   -0.356840   -0.635012
            46    0       4.512740      0.341770      8.265150    -1.292268   -2.242919   -2.087230
            47    0       6.608240      3.899340      0.395650    -1.094648    1.521406    0.232481
            48    0       6.616170      0.469150      9.104950    -2.009642   -0.050891    2.035315
            49    0       2.810220      2.843890      9.138020     2.439473   -1.069190    1.806723
            50    0       6.643410      9.346250      7.343610    -0.806094    0.520871   -1.246274
            51    0       4.548140      4.841280      1.360010     0.841371   -0.163188   -0.263675
            52    0       1.429700      6.402920      1.564480     1.217289   -1.049754    1.160103
            53    0       2.044500      8.951860      7.980970     2.016812   -1.348462   -0.989616
            54    0       8.982900      6.447790      8.288090    -1.552194   -1.387263   -0.330389
            55    0       5.388360     10.033250      5.474220     1.337547   -2.582615   -1.294893
            56    0       8.923090      9.207940      6.046920     0.146468    0.752035    0.976013
            57    0       6.442680      2.709950      5.142250     1.756957    2.661382    0.743528
            58    0       7.697210      8.423270      4.089960    -1.886955    0.792356    0.753679
            59    0       8.161630      6.833730      0.307530    -2.076551   -2.414609   -0.555104
            60    0       4.919300      0.905130      2.387740    -3.784032   -0.353226   -2.063802
            61    0       8.011160      8.820350      9.452410     1.374570    1.438642    0.519061
            62    0       5.973670      1.416980      6.877020     0.383072    1.196598    1.798072
            63    0       2.080650      3.708620      4.080510    -0.748037    1.512103    1.588328
            64    0       9.125800      9.037230      1.496040    -1.969935   -1.379197   -1.731772
            65    0       5.691860      8.392110      0.389190    -0.625270    2.324322    0.778087
            66    0       1.967090      7.954340      9.975510     2.002160    0.255905    0.771737
            67    0       3.258700      4.559320      6.741670    -0.795360   -2.175343   -0.199762
            68    0       1.190140      3.027040      6.681850     0.149430   -2.033646    0.527894
            69    0       6.863030      5.088050      8.508480     1.029043    3.066136    0.583308
            70    0       7.838210      0.652440      5.397610    -1.871605    1.546619   -1.188332
            71    0       3.301160      2.383260      7.026540     2.236744   -1.368807   -1.524547
            72    0       9.763170      7.323230      5.657640     1.782117   -2.251345    0.602353
            73    0       1.894190      7.895780      3.674090     0.598345    1.089431   -2.684626
            74    0       7.530630      7.491100      6.642470     1.742798   -2.513538   -0.322989
            75    0       6.065600      6.059950      0.461330     0.365730    0.855249   -1.238791
            76    0       4.467290      1.736270      4.844820    -1.475535    1.124163   -0.264256
            77    0       1.284740      8.967860      1.559660     0.057877    0.024052    2.151775
            78    0       3.899340      6.977850      0.873010     0.017135   -0.138066    1.586871
            79    0       1.095490      6.869880      8.233970     0.183289   -3.679692    0.595474
            80    0       9.861550      8.434240      8.076380    -3.025623   -0.451671   -0.434205
            81    0       2.665380      5.707030      9.727200    -0.654995    0.554524   -0.688094
            82    0       9.931290      3.691220      4.827560     1.784797    0.987250    0.854633
            83    0       2.013980      0.905140      8.311450     1.417971    1.741900    0.969768
            84    0       3.360480      8.462330      5.226120     1.535134    0.889826   -3.281157
            85    0       0.843650      2.691110      0.502280    -2.904165   -0.695276   -0.090156
            86    0       6.416720      7.545010      8.701450    -1.125552   -2.141709   -0.593720
            87    0       3.162340      5.331810      2.946890    -1.946398    1.902185    0.230613
            88    0       5.439900      9.078050      3.327500     1.134569    1.287916   -0.285760
            89    0       5.055150      2.374650      8.997740    -0.631259    1.273923   -1.359415
            90    0       3.953070      3.178720      2.912280     0.748384   -1.055666    1.542766
            91    0       4.561060      7.106530      3.338860    -2.436632    0.446550   -1.450712
            92    0       5.512690      6.131260      7.060090     0.915071   -0.679626   -1.634739
            93    0       3.169280      0.069880      3.642060     0.820451   -1.412238    0.011429
            94    0       8.171220      4.800490      1.740120     1.395161    0.752078   -0.316755
            95    0       9.881480      8.651910      3.594500     2.953890   -3.726546    2.098544
            96    0       0.099790      0.671530      1.404070     0.673026    2.015831    0.471776
            97    0       3.401650      6.457270      7.683940    -0.783262    0.147881    2.944372
            98    0       0.874470      5.100540      6.639250    -1.217135    1.827277   -0.451734
            99    0       9.000320      4.158140      8.154010     2.129671    0.386299   -0.727546
           100    0       4.360090      2.703270      0.871870    -1.989568   -0.994363   -1.450390
 Energy
       -404.312457624266
 PlusStress:  xx          yy          zz          yz          xz          xy
       466.28644   506.80266   462.70316     8.01058     0.38187     6.31708
 Feature   EFS_by	VASP
END_CFG

BEGIN_CFG
 Size
    100
 Supercell
        10.211495      0.000000      0.000000
         0.000000     10.211495      0.000000
         0.000000      0.000000     10.211495
 AtomData:  id type       cartes_x      cartes_y      cartes_z           fx          fy          fz
             1    0       8.775710      4.125920      3.607130     1.252093    1.357881   -2.499608
             2    0       4.612000      0.853620      3.646780    -2.055243    0.881972   -4.225932
             3    0       9.081990      8.098960      8.245020     1.347205    1.104384    1.696630
             4    0      10.040810      0.762070      6.214810    -0.854381   -5.415830    3.110160
             5    0       6.456850      9.886240      6.238730     2.700366   -5.511764    3.924427
             6    0       2.990130      8.364590      7.592840     1.407598    0.089988    0.966218
             7    0       7.039920      7.225650      6.439390     1.181545   -0.223482    1.905454
             8    0       5.641010      6.424090      0.251640     2.618241   -2.786861   -2.141294
             9    0       8.796150      6.159200      2.484640     1.556232    0.099160    1.103767
            10    0       3.381640      6.964700      5.857940    -0.471962    2.370273   -3.023193
            11    0       1.031230      2.295580      1.994580     0.000681   -2.722852   -1.220805
            12    0       3.095490      7.036680      3.420920     2.243103   -0.779198    0.311498
            13    0       9.236510      6.589980      6.590830    -0.698090   -1.756562    1.866092
            14    0       2.445050      0.468830      2.695610    -0.787979    1.554196   -0.024092
            15    0       8.521550      9.090210      6.382060     0.564336   -1.178913    4.132884
            16    0       1.545470      6.002280      9.486410     0.390412   -0.265559   -2.242883
            17    0       2.286800      8.890070      4.230390     3.530859   -0.370902    0.918313
            18    0       0.931470      6.842000      2.906660    -3.511031    0.993060   -0.380207
            19    0       8.909410      8.504140      2.227540    -2.275797   -1.798669   -0.410164
            20    0       5.922320      3.361760      5.858270     1.361654    0.292213   -1.083528
            21    0       5.959760      4.134540      9.234090    -0.871274    0.797832   -0.253393
            22    0       0.797440      9.027230      5.771790    -1.722526   -1.241132    0.558579
            23    0       2.201140      3.578770      0.668200    -0.256862    0.405824    1.329769
            24    0       5.801190      0.224930      9.870440    -2.561123    0.097127   -1.250003
            25    0       6.941020     10.149600      3.526550    -2.151364    0.652811   -1.149604
            26    0       5.600570      3.412670      1.200340     2.864275    5.648760    0.972455
            27    0       1.225980      8.280190      9.323650    -0.018386    0.162770    0.055043
            28    0       0.013070      2.300880      8.306890    -0.677640   -1.551247   -2.469905
            29    0       2.932380      0.050650      9.671090     0.420572   -1.547218   -1.019457
            30    0       8.336740      3.507020      5.575800    -4.059812    1.773568    0.052839
            31    0       9.438070      0.345380      1.810800     0.757044    2.723458    2.284434
            32    0       2.121380      5.955470      1.381520    -2.648429    0.064601   -1.643930
            33    0       6.596450      6.984320      2.047090     8.859516   -1.307567    1.792669
            34    0       1.035970      9.976800      0.736040     0.745263    0.299683    0.399803
            35    0       0.397280      4.391620      2.116490    -2.214906    1.810766   -0.867735
            36    0       7.479170      5.699180      4.787800    -0.351604   -1.297571   -0.003833
            37    0       2.729400      1.498940      6.959330    -2.259632   -1.066629    2.996622
            38    0       7.910130      5.522210      0.663240    -1.062083    0.656859   -0.149277
            39    0       0.018950      7.232140      0.818410    -0.245123    0.542496   -0.052666
            40    0       7.199800      6.226810      8.843890    -0.213370    1.959937   -1.226727
            41    0       0.141930      4.123160      9.729810     3.073373    1.562431    1.195962
            42    0       7.190300      7.924410      4.141580    -1.756453    0.336081   -0.168770
            43    0       4.668910      4.185790      3.988190     0.030450   -1.472675   -0.456779
            44    0       2.312230      4.901340      3.330650     0.185463    2.539460   -0.309802
            45    0       5.205750      8.159660      5.979790    -1.786229   -0.272526   -0.391727
            46    0       4.733280      9.927550      7.876530    -0.418835    0.959010   -0.803684
            47    0       8.773760      9.550490      4.459500     2.110284    1.056455   -3.220545
            48    0       7.890680      0.675070      7.955810     1.167381   -2.986604    0.341370
            49    0       4.039230      1.845230      8.744640    -0.400429   -0.472784    1.866637
            50    0       1.358670      9.920460      7.742460    -0.631394    2.238699    0.880037
            51    0       4.863750      7.769230      1.937300    -7.764062    4.091336   -0.377943
            52    0       1.205790      6.781350      5.022590     2.344967    0.244740   -0.875442
            53    0       1.866410      0.819510      4.894560     1.727718    1.160153    1.217725
            54    0       1.627590      1.797320      9.688120     0.039781   -1.140204    0.910952
            55    0       4.278230      2.038990      0.820400    -5.823156   -4.109035   -1.822509
            56    0       5.880300      1.724820      7.471640     0.589169    0.682900    2.839457
            57    0       6.290900      2.622810      3.475000    -1.397351    0.272633    0.955304
            58    0       9.294220      7.049750      4.500190     0.230856    1.365096   -1.851656
            59    0       3.655800      6.843880      0.113340    -4.886619    0.170677   -1.168226
            60    0       3.231270      3.007140      2.665880     1.021827   -3.001311    0.343029
            61    0       6.655380      8.797320      8.603640     0.269539   -0.568012   -3.637779
            62    0       4.583800      8.559450      9.562420    -0.527470    0.071504    0.967951
            63    0       5.164470      5.530660      5.812710     1.052771   -0.005660    3.057987
            64    0       6.249710      1.276330      1.580020     0.715101   -0.179154    3.147068
            65    0       5.172770      6.895020      8.026660    -1.428098   -0.962412   -0.452320
            66    0       4.020100      5.222850      1.858610     4.176280   -1.075048    0.395184
            67    0       2.149660      3.707660      8.531190    -0.611009    0.061365    0.901482
            68    0      10.163120      2.622700      5.687460     0.062318    1.886908    0.659185
            69    0       1.130020      7.107550      7.098830    -0.430164    0.179871    3.956246
            70    0       8.345140      1.961630      3.335220    -0.567182   -1.350846   -1.397226
            71    0       4.408930      3.651060      7.565170    -0.296607    2.311632   -0.685474
            72    0       7.825060      1.232620      5.531940     1.921592    1.538348   -0.418561
            73    0       0.201660      4.899440      5.390840    -1.215607    1.507954   -0.614578
            74    0       7.129950      4.881860      7.036880     0.039616    0.928218    0.049781
            75    0       7.895230      8.249130     10.207220     3.198789   -2.372898    1.431754
            76    0       3.006490      4.805180      5.369760    -0.694376   -0.605275    0.952075
            77    0       2.303870      8.448080      1.719710     0.472275   -1.326468   -0.492150
            78    0       9.458730      6.062430      9.253770     0.859919    2.078494   -1.191864
            79    0       3.701930      4.558320      9.786810     3.931989    1.682813   -0.836996
            80    0       8.046690      0.474330      0.266450    -2.841483   -1.230170    1.042173
            81    0       9.832690      4.371380      7.431310     0.251447    1.398833   -0.042523
            82    0       2.922180      5.719800      7.472370     0.348721   -2.101895    4.062426
            83    0       1.753120      3.389010      6.514850     0.405088    1.109152   -1.022777
            84    0       3.689150     10.067400      5.934240    -0.356004   -2.310513   -1.725337
            85    0       0.164880      1.410160      3.764370    -1.233544   -1.607510   -0.310547
            86    0       7.963760      2.778330      7.610210    -0.304020   -0.971307   -0.935477
            87    0       4.604560      8.854160      3.944770     0.856014   -0.338407   -0.316489
            88    0       9.478450      2.408340      0.366490     0.721754   -3.008625    0.371050
            89    0       6.887400      2.034810      9.708920     0.144965    5.004188   -1.934631
            90    0       3.848190      2.453620      5.434960    -2.051249    2.127807   -2.417374
            91    0       7.909120      3.392440      1.321020    -1.051459    0.165375    1.699509
            92    0       5.571720      1.158980      5.429050    -0.968643    3.888773   -3.087669
            93    0       4.049510      9.958730      1.392230     2.254924   -0.333157    0.150617
            94    0       6.590630      4.824680      2.730340     0.636724   -0.707437   -0.204154
            95    0       9.717990      0.285120      9.385830     3.651918   -1.843459   -3.902565
            96    0       1.186840      3.398090      4.192450     1.621506   -2.408052   -2.208311
            97    0       6.606170      9.267790      1.358300    -1.122491   -0.985858    3.192731
            98    0       5.271550      6.301710      3.816810     0.187253    2.604001   -0.913135
            99    0       8.257620      4.223680      9.081860    -1.442465   -1.109763    2.011597
           100    0       0.416380      9.261340      3.362370    -0.127756    0.114493   -1.443685
 Energy
       -395.421900150386
 PlusStress:  xx          yy          zz          yz          xz          xy
       510.64504   499.72539   505.15482   -21.32628     7.06393   -11.97811
 Feature   EFS_by	VASP
END_CFG

BEGIN_CFG
 Size
    100
 Supercell
        10.211495      0.000000      0.000000
         0.000000     10.211495      0.000000
         0.000000      0.000000     10.211495
 AtomData:  id type       cartes_x      cartes_y      cartes_z           fx          fy          fz
             1    0       1.329390      4.404460      4.282090    -0.980032    0.195212   -0.681363
             2    0       8.414830      1.311090      4.640650     0.201121   -1.980427   -1.824959
             3    0       9.788380      6.778470      7.273560    -0.687106    0.737372    2.139487
             4    0       7.662830      3.531640      5.995450    -1.389778   -0.072282    1.168219
             5    0       5.762580      9.950980      8.614410     0.527711    0.688074    0.313089
             6    0       9.875330      8.060220      9.194070    -0.557782   -0.039697   -1.893973
             7    0       4.568840      6.986460      9.235640    -1.693730    0.648005   -0.751900
             8    0       4.977630      5.654360      7.149960     2.433456   -0.273040    1.370079
             9    0       6.351430      7.510240      0.163050    -0.144888    0.794498    0.318737
            10    0       1.097900      5.465610      6.311100     1.207730    0.327428   -0.189016
            11    0       9.709810      2.430210      2.948660    -0.783511    0.329381   -1.536662
            12    0       3.163600      5.309470      3.004820     0.522683    1.798185   -0.390054
            13    0       0.146670      6.885570      4.784970     1.025833    2.439214   -1.476954
            14    0       5.194510      9.647820      2.175110    -1.752761   -0.862697    1.329323
            15    0       8.982990      9.557700      7.014860     3.449222   -1.257681    0.789208
            16    0       0.248260      4.603760      9.776900     0.963440   -2.812284   -2.958679
            17    0       3.012390      9.018240      5.653090    -1.942282   -2.505514    0.187036
            18    0       1.712630      8.758320      3.643560    -2.004387    0.693908    0.273588
            19    0       8.112960      9.156060      4.440370    -0.781586    0.475232   -0.841539
            20    0       8.204130      7.472620      5.968600    -1.830410    1.886890   -1.441617
            21    0       6.053610      3.578980      7.790260     0.012456    2.937789   -0.636203
            22    0      10.189850      9.154910      5.094720     0.038199   -0.361041    0.440001
            23    0       4.913180      1.595820      3.300480     0.811909    0.450561   -1.917417
            24    0       8.139270      0.036560      9.158410    -0.410307    0.215617    0.287384
            25    0       8.333460      0.226190      2.331460     2.192526   -1.294654    2.150637
            26    0       4.785950      3.277910      9.840740     0.615216    2.390960    0.387365
            27    0       9.752910      8.281730      2.785470    -0.500191    0.081012   -0.720076
            28    0       9.852510      1.369390      6.318950    -0.118674   -0.105732    2.052192
            29    0       8.295520      3.469940      9.334230     0.255390    2.183530   -1.302494
            30    0       7.929400      6.790710      3.442750     3.354103   -4.052965    4.707073
            31    0       9.808690     10.071140      0.405600     1.013888    0.155645   -0.531695
            32    0       1.394690      4.460640      1.599630     0.319885   -0.003864    1.712999
            33    0       6.861020      3.693280      1.022460    -1.632174   -0.750046   -0.092618
            34    0       1.027510      8.110410      0.732330     1.184112    1.202427    0.445766
            35    0       0.787050      2.319040      0.752370    -1.275550   -1.567148   -0.252796
            36    0       5.890690      7.723600      4.933820     0.778307    0.030594    0.546179
            37    0       1.770440      1.633840      8.424690     0.464343    0.473576    1.266725
            38    0       9.057580      4.176530      1.208700     0.571568   -2.427209    2.285452
            39    0       8.404110      8.181510      0.633220     1.807566   -0.449632   -0.337574
            40    0       6.171240      5.287910      9.615130     0.506453   -0.763458   -2.724256
            41    0       9.742950      2.028230      8.512650     0.595677    0.024048    0.841511
            42    0       6.951810      9.748690      6.536480    -0.479993   -0.895940   -1.724861
            43    0       5.696400      6.282170      2.992650    -0.768470    0.272016   -0.220755
            44    0       4.792600      5.350680      1.058090    -0.946987   -0.120874    1.079222
            45    0       5.455880      7.956070      7.245510    -0.553924   -1.271254    0.735292
            46    0       1.624150      0.441240      6.243010     2.503488   -0.444257    3.047569
            47    0       0.824450      0.880070      4.389200    -0.314638    1.501830   -2.764422
            48    0       6.362220      1.713770      5.067340    -0.307762    1.235743   -0.043095
            49    0       3.938960      1.298490      9.574230    -0.370871   -1.639841   -1.264790
            50    0       0.711050     10.022920      8.363610    -1.773170   -2.279455   -0.066488
            51    0       4.441760      9.184660      0.012250    -0.052405   -0.248014   -0.564578
            52    0       1.170950      8.186290      6.792890     0.551592    1.320329    0.477390
            53    0       3.266980      0.075460      3.745200    -0.035451    2.247151    0.277714
            54    0       1.838990      2.381180      2.987930    -0.633789   -0.229567   -0.627600
            55    0       3.463470     10.152080      7.644330    -0.755757    0.587802    1.904831
            56    0       5.202470      3.648510      5.619590     0.727551    0.274825   -0.293504
            57    0       7.149960      2.065270      2.622490    -0.266827    1.098632    1.509181
            58    0       2.387870      6.896340      4.675570     0.783077   -1.912926    2.159791
            59    0       2.526780      3.464470     10.158090    -0.558742   -0.735135   -1.280847
            60    0       6.705930      5.616910      5.300950    -0.484655   -0.820753   -0.583698
            61    0       2.511710      8.481490      9.003610     0.186165   -0.783245   -0.475911
            62    0       6.803960      9.887260      0.833020     1.768412   -1.672995   -3.544821
            63    0       4.419990      5.814190      4.958030    -0.879013    0.298507   -0.968658
            64    0       3.224090      1.194540      1.557260     1.284105    2.761425    1.598507
            65    0       2.515920      6.196200      0.415030     1.000148   -0.152545    1.383604
            66    0       3.403770      5.033880      8.835260     0.159717    0.197836   -0.850009
            67    0       3.773330      3.421940      1.853030    -1.181627   -1.102144   -1.570152
            68    0       9.440380      4.583080      7.446830    -1.498906   -2.345428    1.110156
            69    0       8.967370      5.471050      5.387360    -0.610488   -3.506903   -1.244328
            70    0       0.696970      0.189020      2.302170    -0.292087    0.192556   -0.559750
            71    0       3.118880      4.444420      6.476300     0.186694    2.145313   -1.958057
            72    0       9.593520      3.126080      5.076390     2.060669    3.442416   -0.574637
            73    0       9.986220      5.515820      2.916740    -1.822895   -0.982545    2.060486
            74    0       7.547910      8.176250      8.183500    -0.020847   -1.267729    1.940426
            75    0       7.799130      1.352340      7.340500    -0.323170    3.041389   -0.411957
            76    0       4.015010      8.157240      3.753480     1.989660   -0.994317   -0.427945
            77    0       9.990720      6.215690      0.827400     0.022683    3.678370    1.097282
            78    0       1.631360      2.782460      5.919110     0.078282   -1.565056   -1.158683
            79    0       5.489370      3.869520      3.028830     2.423841    1.038612    1.695876
            80    0       5.635050      1.397520      0.971780    -2.006008    2.906309    0.471854
            81    0       1.279900      6.391320      8.852030     0.207649    0.202676   -2.050925
            82    0       1.272350      3.802130      7.863260    -0.198353    0.339372    1.894125
            83    0       3.763000      1.645990      5.217120    -0.632948   -1.654208    3.938576
            84    0       3.064520      6.894760      7.099290    -0.317615    0.729499   -0.058626
            85    0       2.901620      9.297670      1.779300    -1.762322   -1.923168    0.432346
            86    0       8.365150      5.874890      9.570710     0.427194    0.942839   -1.987843
            87    0       4.903190      9.765590      6.063310    -0.558806    0.575626   -0.832228