ITEM: TIMESTEP
10000
ITEM: NUMBER OF ATOMS
100
ITEM: BOX BOUNDS xy xz yz pp pp pp
0.0000000000000000e+00 1.0211494999999999e+01 0.0000000000000000e+00
0.0000000000000000e+00 1.0211494999999999e+01 0.0000000000000000e+00
0.0000000000000000e+00 1.0211494999999999e+01 0.0000000000000000e+00
ITEM: ATOMS id type xs ys zs
100 1 0.426979 0.264728 0.0853808
29 1 0.218619 0.0850162 0.0384767
85 1 0.082618 0.263537 0.0491881
14 1 0.23327 0.393845 0.0858572
51 1 0.445394 0.474101 0.133184
60 1 0.481741 0.0886387 0.233829
96 1 0.00977212 0.0657625 0.137499
27 1 0.204568 0.184887 0.248812
10 1 0.445604 0.0441289 0.0127273
90 1 0.38712 0.311288 0.285196
93 1 0.310364 0.00684343 0.356663
63 1 0.203756 0.363181 0.3996
28 1 0.209104 0.165473 0.476161
76 1 0.437477 0.170031 0.474448
17 1 0.088924 0.0274129 0.349226
26 1 0.440228 0.4188 0.470309
13 1 0.0433957 0.417036 0.252036
67 1 0.319121 0.446489 0.660204
68 1 0.116549 0.296435 0.654346
71 1 0.323279 0.23339 0.688101
5 1 0.327478 0.0121373 0.629764
3 1 0.0345647 0.0036521 0.71523
98 1 0.085636 0.49949 0.650174
8 1 0.446858 0.469265 0.869321
83 1 0.197227 0.0886389 0.813931
18 1 0.124355 0.407247 0.855892
49 1 0.275202 0.278499 0.894876
89 1 0.495045 0.232547 0.881138
46 1 0.441927 0.0334687 0.809397
12 1 0.346104 0.887453 0.162131
52 1 0.140009 0.627031 0.153208
78 1 0.381858 0.683333 0.0854929
77 1 0.125813 0.878212 0.152736
91 1 0.446659 0.695934 0.326971
36 1 0.101165 0.58764 0.420025
87 1 0.309684 0.522138 0.288586
73 1 0.185496 0.773225 0.359799
6 1 0.436558 0.798488 0.686178
42 1 0.188236 0.691985 0.605705
22 1 0.121393 0.896332 0.560876
7 1 0.352777 0.595119 0.504941
84 1 0.329088 0.828706 0.511788
53 1 0.200216 0.876645 0.781567
79 1 0.10728 0.672759 0.806343
81 1 0.261018 0.558883 0.952574
23 1 0.39187 0.811363 0.898454
97 1 0.33312 0.632353 0.752479
66 1 0.192635 0.778959 0.97689
39 1 0.044965 0.955673 0.94456
24 1 0.621461 0.173271 0.0704815
38 1 0.807972 0.19385 0.166921
47 1 0.647137 0.381858 0.0387459
94 1 0.800198 0.470106 0.170408
34 1 0.638814 0.129226 0.347068
35 1 0.788849 0.369774 0.367006
31 1 0.857925 0.0127708 0.325274
15 1 0.977406 0.200271 0.322545
82 1 0.97256 0.361477 0.472757
19 1 0.620254 0.3131 0.252962
40 1 0.819533 0.246276 0.651377
45 1 0.548057 0.367548 0.69004
62 1 0.584995 0.138763 0.673459
20 1 0.665929 0.489331 0.508279
70 1 0.767587 0.0638926 0.528582
11 1 0.997985 0.15282 0.547528
57 1 0.630924 0.265382 0.503575
4 1 0.978796 0.17291 0.853432
69 1 0.672089 0.498267 0.833226
21 1 0.701498 0.292788 0.853912
32 1 0.813156 0.0676037 0.772727
99 1 0.881391 0.407202 0.798513
48 1 0.647914 0.0459429 0.891637
37 1 0.850723 0.0803175 0.985075
41 1 0.863819 0.309395 0.995258
25 1 0.687382 0.98865 0.130867
1 1 0.991659 0.723944 0.0160987
65 1 0.557397 0.82183 0.038113
44 1 0.930192 0.667359 0.2286
64 1 0.893679 0.885006 0.146505
9 1 0.683554 0.747481 0.194792
59 1 0.799259 0.669219 0.0301157
75 1 0.593997 0.593444 0.0451779
16 1 0.979317 0.510146 0.00248166
43 1 0.611751 0.563481 0.300823
88 1 0.532723 0.889003 0.325858
58 1 0.753779 0.824881 0.400525
95 1 0.967682 0.847272 0.352005
33 1 0.83238 0.61712 0.400113
74 1 0.737466 0.733595 0.650489
55 1 0.527676 0.982545 0.536084
56 1 0.873828 0.901723 0.592168
72 1 0.956096 0.717156 0.554046
92 1 0.539851 0.600427 0.691387
50 1 0.650582 0.915268 0.719151
30 1 0.860795 0.503846 0.59397
2 1 0.571537 0.734242 0.507229
80 1 0.96573 0.825955 0.790911
61 1 0.784524 0.863767 0.925664
54 1 0.879685 0.631425 0.811643
86 1 0.628382 0.738874 0.852123
ITEM: TIMESTEP
20000
ITEM: NUMBER OF ATOMS
100
ITEM: BOX BOUNDS xy xz yz pp pp pp
0.0000000000000000e+00 1.0211494999999999e+01 0.0000000000000000e+00
0.0000000000000000e+00 1.0211494999999999e+01 0.0000000000000000e+00
0.0000000000000000e+00 1.0211494999999999e+01 0.0000000000000000e+00
ITEM: ATOMS id type xs ys zs
55 1 0.418962 0.199676 0.0803407
23 1 0.215555 0.350465 0.0654361
11 1 0.100987 0.224804 0.195327
35 1 0.0389048 0.430066 0.207265
43 1 0.457221 0.40991 0.390559
14 1 0.239441 0.045912 0.263978
96 1 0.116226 0.332771 0.410562
44 1 0.226434 0.479983 0.326167
85 1 0.0161463 0.138095 0.36864
2 1 0.451648 0.0835936 0.357125
53 1 0.182775 0.0802536 0.479319
60 1 0.316435 0.294486 0.261067
37 1 0.267287 0.146789 0.681519
71 1 0.431761 0.357544 0.740848
90 1 0.376849 0.24028 0.532239
83 1 0.171681 0.331882 0.637992
76 1 0.294422 0.470566 0.525854
73 1 0.0197479 0.479797 0.527919
54 1 0.159388 0.176009 0.948746
49 1 0.395557 0.180701 0.856353
67 1 0.210514 0.363087 0.83545
41 1 0.0138988 0.403776 0.952829
79 1 0.362526 0.446391 0.958411
51 1 0.476301 0.760832 0.189718
77 1 0.225615 0.827311 0.168409
32 1 0.207744 0.583212 0.135291
93 1 0.396564 0.975247 0.136339
66 1 0.393684 0.511468 0.182012
39 1 0.0018558 0.708235 0.0801463
34 1 0.101451 0.977017 0.0720795
59 1 0.358008 0.670213 0.0110994
18 1 0.0912178 0.670029 0.284646
17 1 0.223944 0.870594 0.414277
12 1 0.303138 0.689094 0.335007
100 1 0.0407752 0.906952 0.329273
87 1 0.450919 0.867078 0.386307
52 1 0.118082 0.66409 0.491856
10 1 0.33116 0.682045 0.573661
82 1 0.286166 0.560133 0.731761
84 1 0.361274 0.985889 0.581133
22 1 0.0780926 0.884026 0.565225
69 1 0.110662 0.696034 0.69518
6 1 0.29282 0.819135 0.743558
29 1 0.287165 1.00496 0.947079
27 1 0.120059 0.81087 0.913054
16 1 0.151346 0.587796 0.928993
62 1 0.448886 0.838217 0.936437
65 1 0.506563 0.675221 0.786042
50 1 0.133053 0.971499 0.75821
46 1 0.463525 0.972194 0.77134
26 1 0.548457 0.334199 0.117548
31 1 0.924259 0.0338224 0.17733
64 1 0.612027 0.12499 0.15473
91 1 0.774531 0.332218 0.129366
88 1 0.928214 0.235846 0.0358896
80 1 0.788003 0.0464503 0.0260934
70 1 0.81723 0.1921 0.326614
57 1 0.616061 0.256849 0.340303
94 1 0.645413 0.472475 0.267379
1 1 0.859395 0.404047 0.353242
72 1 0.766299 0.120709 0.541737
56 1 0.575851 0.16891 0.731689
74 1 0.698228 0.478075 0.689114
86 1 0.779882 0.272079 0.745259
20 1 0.579966 0.329213 0.573694
30 1 0.816407 0.343438 0.546032
68 1 0.995263 0.256838 0.556966
92 1 0.545632 0.113498 0.531661
4 1 0.983285 0.0746283 0.608609
81 1 0.962904 0.428084 0.72774
21 1 0.583632 0.404891 0.904284
48 1 0.772725 0.0661093 0.779103
89 1 0.674475 0.199267 0.950783
99 1 0.808659 0.41362 0.889376
28 1 1.00128 0.225323 0.813484
24 1 0.568104 0.0220271 0.966601
95 1 0.951672 0.0279218 0.919144
8 1 0.552418 0.629104 0.0246425
33 1 0.645983 0.683966 0.200469
97 1 0.646935 0.907584 0.133017
19 1 0.872488 0.832801 0.21814
38 1 0.77463 0.540784 0.0649508
9 1 0.861397 0.603163 0.243318
58 1 0.910172 0.690374 0.440698
36 1 0.732427 0.558114 0.468864
47 1 0.859204 0.935269 0.436714
42 1 0.704138 0.776028 0.40558
98 1 0.516237 0.617119 0.373776
25 1 0.679726 0.993939 0.345351
13 1 0.904521 0.645349 0.645432
7 1 0.689411 0.7076 0.630602
5 1 0.632312 0.968148 0.610952
15 1 0.834506 0.890194 0.624988
45 1 0.509793 0.799066 0.585594
63 1 0.505751 0.541611 0.569232
78 1 0.926283 0.593687 0.906211
3 1 0.889389 0.793122 0.807425
61 1 0.651754 0.861511 0.842545
40 1 0.705068 0.609784 0.866072
75 1 0.773171 0.807828 0.999581
ITEM: TIMESTEP
30000
ITEM: NUMBER OF ATOMS
100
ITEM: BOX BOUNDS xy xz yz pp pp pp
0.0000000000000000e+00 1.0211494999999999e+01 0.0000000000000000e+00
0.0000000000000000e+00 1.0211494999999999e+01 0.0000000000000000e+00
0.0000000000000000e+00 1.0211494999999999e+01 0.0000000000000000e+00
ITEM: ATOMS id type xs ys zs
64 1 0.315731 0.11698 0.152501
35 1 0.0770751 0.227101 0.0736785
67 1 0.369518 0.335107 0.181465
32 1 0.13658 0.436825 0.15665
70 1 0.0682532 0.018511 0.225449
14 1 0.508692 -0.0552004 0.213006
54 1 0.18009 0.233186 0.292605
47 1 0.0807374 0.0861845 0.429829
23 1 0.481142 0.156277 0.323212
96 1 0.335029 0.333946 0.406711
53 1 0.319932 0.0073902 0.366763
1 1 0.130186 0.431324 0.41934
78 1 0.159757 0.272483 0.579652
71 1 0.305428 0.435237 0.634217
83 1 0.368506 0.16119 0.510907
46 1 0.159051 0.0432106 0.611371
82 1 0.1246 0.372338 0.77004
26 1 0.468683 0.321002 0.963692
49 1 0.385738 0.12716 0.937593
37 1 0.173377 0.16 0.82502
59 1 0.247445 0.339272 0.99477
16 1 0.0243115 0.450841 0.957441
90 1 0.334331 0.277612 0.763703
66 1 0.333327 0.492962 0.865227
93 1 0.392604 0.732992 0.156283
85 1 0.284152 0.91051 0.174245
65 1 0.246381 0.606787 0.0406435
100 1 0.150542 0.669968 0.250571
34 1 0.100623 0.794243 0.0717167
58 1 0.233841 0.675351 0.457873
76 1 0.393185 0.798829 0.367574
12 1 0.309808 0.51995 0.294259
18 1 0.167716 0.857692 0.35681
63 1 0.432845 0.569377 0.485534
13 1 0.0143631 0.674296 0.468587
84 1 0.300105 0.675196 0.695225
17 1 0.295 0.883146 0.553601
52 1 0.11467 0.801674 0.66522
10 1 0.107516 0.535241 0.618039
45 1 0.534288 0.779129 0.709544
87 1 0.480164 0.956333 0.593773
8 1 0.487454 0.553725 0.700187
7 1 0.447421 0.684176 0.904436
81 1 0.125339 0.625895 0.866869
61 1 0.245969 0.830583 0.881713
50 1 0.0696323 0.981533 0.819039
55 1 0.339174 0.994182 0.7486
51 1 0.434976 0.899443 1.0012
88 1 0.196872 1.01588 1.01396
99 1 0.839106 0.177439 0.0703287
38 1 0.886998 0.409003 0.118367
33 1 0.671892 0.361679 0.100128
25 1 0.816086 0.0221508 0.228317
57 1 0.700187 0.20225 0.256817
80 1 0.551834 0.136858 0.0951655
44 1 0.469334 0.523986 0.103618
2 1 0.824055 0.128394 0.454454
11 1 0.950871 0.237988 0.288759
97 1 0.586278 -0.0303435 0.411569
94 1 0.763339 0.426169 0.333774
79 1 0.537568 0.378938 0.29661
48 1 0.623045 0.167828 0.496239
4 1 0.750412 0.345849 0.587128
72 1 0.939482 0.306133 0.497125
75 1 0.76376 0.132433 0.718847
28 1 0.964845 0.134103 0.618808
92 1 0.522242 0.150834 0.690653
56 1 0.509472 0.357294 0.55032
91 1 0.647272 0.20742 0.903119
29 1 0.812371 0.339807 0.91409
21 1 0.592823 0.350485 0.762891
41 1 0.954116 0.198622 0.833634
68 1 0.924486 0.448816 0.72926
39 1 0.823005 0.801206 0.0620101
77 1 0.97838 0.608695 0.0810262
9 1 0.621988 0.735469 0.0159674
95 1 0.736459 0.574494 0.140648
98 1 0.701617 0.811138 0.23845
62 1 0.666304 0.968248 0.0815768
31 1 0.960554 0.986255 0.0397202
27 1 0.955091 0.81102 0.272778
30 1 0.776517 0.665006 0.337145
73 1 0.977939 0.540158 0.285633
19 1 0.794493 0.896642 0.43484
43 1 0.557842 0.615206 0.293067
60 1 0.656704 0.550058 0.519116
89 1 0.732536 0.579039 0.73305
42 1 0.680783 0.954678 0.64011
20 1 0.803421 0.731785 0.584498
15 1 0.879694 0.935975 0.686957
69 1 0.878164 0.535774 0.527578
22 1 0.99788 0.89653 0.49892
3 1 0.958565 0.663808 0.712291
36 1 0.576869 0.756363 0.483163
74 1 0.739158 0.800691 0.801401
5 1 0.564323 0.974488 0.843599
6 1 0.96708 0.789328 0.900365
86 1 0.81919 0.575321 0.937249
40 1 0.604342 0.517839 0.941599
24 1 0.797069 1.00358 0.896873
ITEM: TIMESTEP
40000
ITEM: NUMBER OF ATOMS
100
ITEM: BOX BOUNDS xy xz yz pp pp pp
0.0000000000000000e+00 1.0211494999999999e+01 0.0000000000000000e+00
0.0000000000000000e+00 1.0211494999999999e+01 0.0000000000000000e+00
0.0000000000000000e+00 1.0211494999999999e+01 0.0000000000000000e+00
ITEM: ATOMS id type xs ys zs
64 1 0.401113 0.0467651 0.140053
35 1 0.113495 0.156934 0.012957
67 1 0.481995 0.271769 0.155663
70 1 0.115297 0.0320644 0.199474
54 1 0.251137 0.220407 0.194417
12 1 0.328666 0.433321 0.171818
32 1 0.104874 0.394483 0.236377
11 1 -0.0598194 0.215343 0.246321
96 1 0.264274 0.349313 0.391724
78 1 -0.0060445 0.322065 0.422419
53 1 0.137905 0.160024 0.383644
23 1 0.412097 0.181814 0.347491
46 1 0.0638686 0.0804953 0.605803
48 1 0.427202 0.310391 0.537569
83 1 0.158677 0.310127 0.586247
87 1 0.286888 0.116526 0.565817
92 1 0.44106 0.169379 0.728603
16 1 0.0681665 0.297338 0.820835
49 1 0.492416 0.0128714 0.891849
37 1 0.22947 0.161722 0.800753
84 1 0.458254 0.400091 0.948097
59 1 0.373371 0.197275 0.966207
82 1 0.301628 0.366214 0.761929
81 1 0.214978 0.374801 0.988649
93 1 0.453265 0.663855 0.159993
85 1 0.289385 0.850469 0.158338
77 1 0.0727595 0.53676 0.0412637
100 1 0.211756 0.634303 0.174795
31 1 0.0143525 0.937112 0.000656266
58 1 0.165035 0.789855 0.327004
76 1 0.296603 0.992163 0.355777
18 1 0.0146732 0.954686 0.404658
44 1 0.343123 0.579574 0.353914
1 1 0.118385 0.528062 0.417732
43 1 0.465434 0.838798 0.317918
63 1 0.40882 0.582615 0.766338
17 1 0.186115 0.90418 0.5467
36 1 0.440455 0.948123 0.520572
52 1 0.102964 0.678602 0.580352
56 1 0.483464 0.563694 0.522608
55 1 0.334576 0.95003 0.743954
60 1 0.331066 0.746243 0.508635
71 1 0.274925 0.499926 0.577863
34 1 0.165453 0.760532 0.956528
51 1 0.393351 0.792645 0.918084
50 1 0.122405 0.918305 0.777969
65 1 0.307675 0.584834 0.985759
3 1 0.169687 0.541733 0.815116
6 1 0.0154835 0.71532 0.794908
88 1 0.255457 0.970546 0.965025
61 1 0.25361 0.734953 0.726099
99 1 0.88922 0.123792 0.0475463
38 1 0.963473 0.347701 0.0555355
33 1 0.725653 0.310368 0.0985828
80 1 0.643697 0.0891702 0.095636
66 1 0.60123 0.49442 0.135002
79 1 0.561617 0.426093 0.345365
47 1 0.865351 0.139397 0.458603
57 1 0.682127 0.235036 0.304215
94 1 0.837097 0.420968 0.268776
25 1 0.800258 0.0375764 0.270253
90 1 0.541238 0.379342 0.722245
15 1 0.844557 0.0250282 0.665501
72 1 0.770888 0.329978 0.497111
21 1 0.775946 0.449742 0.703954
2 1 0.582121 0.13743 0.510309
28 1 0.932511 0.266747 0.643507
68 1 1.00777 0.484133 0.651809
75 1 0.709954 0.222967 0.69275
91 1 0.736076 0.0416743 0.884207
29 1 0.857752 0.275046 0.87237
41 1 0.96922 0.0891246 0.833033
26 1 0.61229 0.226843 0.915808
8 1 0.691875 0.440433 0.914801
39 1 0.951481 0.732283 0.0241133
73 1 1.00178 0.606127 0.250301
9 1 0.687571 0.728423 0.102561
14 1 0.530085 0.885363 0.0852036
62 1 0.785535 0.912595 0.0849907
40 1 0.842559 0.543766 0.0814705
27 1 0.974741 0.842382 0.206811
30 1 0.61402 0.749062 0.479654
13 1 0.875769 0.759802 0.392075
19 1 0.709125 0.950486 0.505112
10 1 0.900282 0.547834 0.44769
95 1 0.719103 0.625238 0.300617
97 1 0.563219 1.02536 0.29963
98 1 0.696234 0.856384 0.299608
69 1 0.861051 0.648775 0.641904
89 1 0.609692 0.610217 0.712642
20 1 0.710942 0.81383 0.674686
22 1 0.938006 0.840324 0.590413
45 1 0.472223 0.775484 0.672392
42 1 0.58838 0.99872 0.696478
4 1 0.692686 0.531308 0.512666
74 1 0.766351 0.643532 0.886857
5 1 0.60941 0.829123 0.885607
24 1 0.85982 0.859834 0.846306
7 1 0.545208 0.601851 0.948241
86 1 0.941559 0.509439 0.861775
ITEM: TIMESTEP
50000
ITEM: NUMBER OF ATOMS
100
ITEM: BOX BOUNDS xy xz yz pp pp pp
0.0000000000000000e+00 1.0211494999999999e+01 0.0000000000000000e+00
0.0000000000000000e+00 1.0211494999999999e+01 0.0000000000000000e+00
0.0000000000000000e+00 1.0211494999999999e+01 0.0000000000000000e+00
ITEM: ATOMS id type xs ys zs
64 1 0.376052 0.0569375 0.150204
81 1 0.229143 0.389467 0.0304928
12 1 0.384515 0.445849 0.204655
70 1 0.110975 0.0590105 0.208028
54 1 0.259948 0.233064 0.206861
35 1 0.114562 0.177564 0.000598482
67 1 0.519047 0.259698 0.144465
96 1 0.282358 0.351671 0.415196
23 1 0.435416 0.175706 0.360351
53 1 0.128023 0.172655 0.39219
32 1 0.121261 0.423962 0.256266
46 1 0.0597169 0.0854556 0.613819
71 1 0.218439 0.5322 0.560925
83 1 0.161633 0.302322 0.613569
87 1 0.306198 0.120092 0.563635
48 1 0.461599 0.291768 0.542089
82 1 0.291328 0.366037 0.810127
16 1 0.0464214 0.319059 0.843103
59 1 0.351486 0.211313 0.979788
37 1 0.202704 0.153677 0.780095
84 1 0.456972 0.428537 0.982377
49 1 0.473294 0.0351913 0.940381
92 1 0.425464 0.186767 0.752827
100 1 0.214995 0.615464 0.1488
85 1 0.259093 0.862662 0.166229
93 1 0.443256 0.655122 0.10215
58 1 0.145329 0.769355 0.35939
1 1 0.310293 0.588533 0.360536
43 1 0.411287 0.790589 0.313892
76 1 0.274901 0.982944 0.36542
18 1 0.0240329 0.961805 0.405574
10 1 0.034783 0.551004 0.429436
45 1 0.46478 0.791371 0.71987
17 1 0.204144 0.897669 0.570765
63 1 0.36424 0.570629 0.722168
52 1 0.0854815 0.703024 0.585923
36 1 0.450543 0.936272 0.525732
60 1 0.340667 0.722416 0.531897
55 1 0.326872 0.967559 0.749867
56 1 0.453323 0.506372 0.524434
34 1 0.158173 0.772127 0.988251
51 1 0.379009 0.819693 0.946665
50 1 0.102199 0.923561 0.789133
65 1 0.295922 0.597733 0.941023
3 1 0.1439 0.546133 0.782711
61 1 0.238464 0.760296 0.767694
88 1 0.248063 0.997272 0.959393
77 1 0.0635176 0.541874 0.992601
31 1 0.0285344 0.964996 1.01221
99 1 0.874386 0.118391 0.0574775
38 1 0.986662 0.351519 0.0856601
33 1 0.754353 0.308653 0.0924737
80 1 0.639848 0.0653158 0.116847
66 1 0.622173 0.484554 0.140585
79 1 0.565956 0.385386 0.355594
47 1 0.865898 0.119666 0.46588
57 1 0.683545 0.197104 0.291139
94 1 0.813524 0.380442 0.296893
78 1 0.97664 0.331102 0.455875
72 1 0.728896 0.302961 0.498998
25 1 0.82592 0.0167671 0.260126
11 1 0.933558 0.205475 0.258497
68 1 0.993619 0.471464 0.640953
15 1 0.797555 0.0458607 0.667827
75 1 0.65863 0.21589 0.703473
21 1 0.746024 0.429243 0.697159
28 1 0.89458 0.25839 0.660605
42 1 0.563716 0.00228916 0.713873
2 1 0.614857 0.102354 0.505896
90 1 0.520069 0.390429 0.752511
91 1 0.71887 0.0501704 0.904186
29 1 0.813222 0.267595 0.874862
41 1 0.960891 0.0993609 0.834259
26 1 0.591666 0.247656 0.925595
8 1 0.669561 0.463304 0.916238
39 1 0.933094 0.737108 0.0102682
14 1 0.521451 0.853268 0.11508
9 1 0.69392 0.695485 0.0440303
40 1 0.845903 0.522266 0.0723337
62 1 0.785208 0.898682 0.0595484
73 1 1.00622 0.631641 0.215462
27 1 1.00231 0.851809 0.209029
30 1 0.580467 0.750194 0.499976
13 1 0.890885 0.741609 0.40691
4 1 0.712688 0.523104 0.477675
98 1 0.703542 0.811992 0.250701
95 1 0.783654 0.607027 0.273014
19 1 0.736315 0.909163 0.44508
44 1 0.552385 0.616794 0.31963
97 1 0.545445 0.986383 0.311117
69 1 0.849671 0.643984 0.598561
89 1 0.607525 0.605676 0.668215
20 1 0.7206 0.830536 0.666713
22 1 0.936406 0.873173 0.600352
74 1 0.778719 0.66625 0.825929
5 1 0.619321 0.849914 0.885563
24 1 0.865088 0.881881 0.827732
7 1 0.528445 0.636202 0.878635
6 1 1.0077 0.710244 0.797695
86 1 0.896067 0.479793 0.853463
