 100 100   0   0
  0.1064800E+02  0.1021150E-08  0.1021150E-08  0.1021150E-08  0.3000000E-14
   2000.00000000000     
  CAR 
 unknown system                          
     21.44946125     -4.35520632  301     14.63789950      1.00000000
     -4.355  0.0000E+00  0.0000E+00  0.0000E+00  0.0000E+00
     -4.269  0.0000E+00  0.0000E+00  0.0000E+00  0.0000E+00
     -4.183  0.0000E+00  0.0000E+00  0.0000E+00  0.0000E+00
     -4.097  0.0000E+00  0.0000E+00  0.0000E+00  0.0000E+00
     -4.011  0.0000E+00  0.0000E+00  0.0000E+00  0.0000E+00
     -3.925  0.0000E+00  0.0000E+00  0.0000E+00  0.0000E+00
     -3.839  0.0000E+00  0.0000E+00  0.0000E+00  0.0000E+00
     -3.753  0.0000E+00  0.0000E+00  0.0000E+00  0.0000E+00
     -3.667  0.0000E+00  0.0000E+00  0.0000E+00  0.0000E+00
     -3.581  0.0000E+00  0.0000E+00  0.0000E+00  0.0000E+00
     -3.495  0.0000E+00  0.0000E+00  0.0000E+00  0.0000E+00
     -3.409  0.8909E-09  0.8904E-09  0.7649E-10  0.7644E-10
     -3.323  0.4114E-03  0.4113E-03  0.3532E-04  0.3531E-04
     -3.237  0.7113E+00  0.7111E+00  0.6111E-01  0.6109E-01
     -3.151  0.8738E+01  0.8738E+01  0.8114E+00  0.8114E+00
     -3.065  0.2191E+01  0.2191E+01  0.9995E+00  0.9995E+00
     -2.979  0.5401E-02  0.5403E-02  0.1000E+01  0.1000E+01
     -2.893  0.5512E-07  0.5515E-07  0.1000E+01  0.1000E+01
     -2.807  0.2367E-14  0.2367E-14  0.1000E+01  0.1000E+01
     -2.721  0.0000E+00  0.0000E+00  0.1000E+01  0.1000E+01
     -2.635  0.0000E+00  0.0000E+00  0.1000E+01  0.1000E+01
     -2.549  0.0000E+00  0.0000E+00  0.1000E+01  0.1000E+01
     -2.463  0.1201E-09  0.1202E-09  0.1000E+01  0.1000E+01
     -2.377  0.3345E-04  0.3345E-04  0.1000E+01  0.1000E+01
     -2.291  0.4719E-01  0.4719E-01  0.1004E+01  0.1004E+01
     -2.205  0.9161E+00  0.9161E+00  0.1083E+01  0.1083E+01
     -2.119  0.3171E+01  0.3171E+01  0.1355E+01  0.1355E+01
     -2.033  0.7679E+01  0.7680E+01  0.2015E+01  0.2015E+01
     -1.947  0.8564E+01  0.8564E+01  0.2750E+01  0.2750E+01
     -1.861  0.1018E+02  0.1018E+02  0.3624E+01  0.3624E+01
     -1.775  0.1000E+02  0.1000E+02  0.4483E+01  0.4483E+01
     -1.689  0.9186E+01  0.9186E+01  0.5272E+01  0.5272E+01
     -1.603  0.9651E+01  0.9651E+01  0.6100E+01  0.6100E+01
     -1.517  0.7620E+01  0.7620E+01  0.6755E+01  0.6755E+01
     -1.431  0.2591E+01  0.2591E+01  0.6977E+01  0.6977E+01
     -1.345  0.2644E+00  0.2644E+00  0.7000E+01  0.7000E+01
     -1.259  0.7109E-03  0.7109E-03  0.7000E+01  0.7000E+01
     -1.173  0.6162E-04  0.6162E-04  0.7000E+01  0.7000E+01
     -1.087  0.5751E-01  0.5751E-01  0.7005E+01  0.7005E+01
     -1.001  0.1162E+01  0.1162E+01  0.7105E+01  0.7105E+01
     -0.915  0.3233E+01  0.3233E+01  0.7382E+01  0.7382E+01
     -0.829  0.5186E+01  0.5186E+01  0.7827E+01  0.7827E+01
     -0.743  0.7604E+01  0.7603E+01  0.8480E+01  0.8480E+01
     -0.657  0.1115E+02  0.1115E+02  0.9438E+01  0.9438E+01
     -0.571  0.1259E+02  0.1259E+02  0.1052E+02  0.1052E+02
     -0.485  0.1335E+02  0.1335E+02  0.1167E+02  0.1167E+02
     -0.398  0.1470E+02  0.1470E+02  0.1293E+02  0.1293E+02
     -0.312  0.1465E+02  0.1465E+02  0.1419E+02  0.1419E+02
     -0.226  0.1272E+02  0.1272E+02  0.1528E+02  0.1528E+02
     -0.140  0.1313E+02  0.1313E+02  0.1641E+02  0.1641E+02
     -0.054  0.9575E+01  0.9576E+01  0.1723E+02  0.1723E+02
      0.032  0.9317E+01  0.9317E+01  0.1803E+02  0.1803E+02
      0.118  0.7634E+01  0.7634E+01  0.1868E+02  0.1868E+02
      0.204  0.3178E+01  0.3178E+01  0.1896E+02  0.1896E+02
      0.290  0.5083E+00  0.5083E+00  0.1900E+02  0.1900E+02
      0.376  0.2449E-01  0.2449E-01  0.1900E+02  0.1900E+02
      0.462  0.3021E+00  0.3021E+00  0.1903E+02  0.1903E+02
      0.548  0.7080E+00  0.7079E+00  0.1909E+02  0.1909E+02
      0.634  0.3550E+01  0.3549E+01  0.1939E+02  0.1939E+02
      0.720  0.6391E+01  0.6391E+01  0.1994E+02  0.1994E+02
      0.806  0.9011E+01  0.9011E+01  0.2072E+02  0.2072E+02
      0.892  0.9700E+01  0.9700E+01  0.2155E+02  0.2155E+02
      0.978  0.1079E+02  0.1079E+02  0.2247E+02  0.2247E+02
      1.064  0.1220E+02  0.1220E+02  0.2352E+02  0.2352E+02
      1.150  0.1090E+02  0.1090E+02  0.2446E+02  0.2446E+02
      1.236  0.1050E+02  0.1050E+02  0.2536E+02  0.2536E+02
      1.322  0.9374E+01  0.9374E+01  0.2616E+02  0.2616E+02
      1.408  0.6194E+01  0.6195E+01  0.2670E+02  0.2670E+02
      1.494  0.2571E+01  0.2571E+01  0.2692E+02  0.2692E+02
      1.580  0.9346E+00  0.9346E+00  0.2700E+02  0.2700E+02
      1.666  0.3146E-01  0.3145E-01  0.2700E+02  0.2700E+02
      1.752  0.3585E-02  0.3585E-02  0.2700E+02  0.2700E+02
      1.838  0.3207E+00  0.3207E+00  0.2703E+02  0.2703E+02
      1.924  0.1298E+01  0.1298E+01  0.2714E+02  0.2714E+02
      2.010  0.4013E+01  0.4013E+01  0.2748E+02  0.2748E+02
      2.096  0.7304E+01  0.7304E+01  0.2811E+02  0.2811E+02
      2.182  0.9631E+01  0.9631E+01  0.2894E+02  0.2894E+02
      2.268  0.9839E+01  0.9839E+01  0.2978E+02  0.2978E+02
      2.354  0.8933E+01  0.8932E+01  0.3055E+02  0.3055E+02
      2.440  0.9802E+01  0.9803E+01  0.3139E+02  0.3139E+02
      2.526  0.8904E+01  0.8904E+01  0.3216E+02  0.3216E+02
      2.612  0.6366E+01  0.6366E+01  0.3270E+02  0.3270E+02
      2.698  0.2900E+01  0.2900E+01  0.3295E+02  0.3295E+02
      2.784  0.5564E+00  0.5565E+00  0.3300E+02  0.3300E+02
      2.870  0.2238E-01  0.2238E-01  0.3300E+02  0.3300E+02
      2.956  0.1775E+01  0.1775E+01  0.3315E+02  0.3315E+02
      3.042  0.7782E+01  0.7782E+01  0.3382E+02  0.3382E+02
      3.128  0.1177E+02  0.1177E+02  0.3483E+02  0.3483E+02
      3.214  0.1368E+02  0.1368E+02  0.3601E+02  0.3601E+02
      3.300  0.1622E+02  0.1622E+02  0.3740E+02  0.3740E+02
      3.386  0.1803E+02  0.1803E+02  0.3895E+02  0.3895E+02
      3.472  0.2010E+02  0.2010E+02  0.4067E+02  0.4067E+02
      3.558  0.2238E+02  0.2238E+02  0.4260E+02  0.4260E+02
      3.644  0.2131E+02  0.2131E+02  0.4443E+02  0.4443E+02
      3.730  0.2032E+02  0.2032E+02  0.4617E+02  0.4617E+02
      3.816  0.2100E+02  0.2100E+02  0.4797E+02  0.4797E+02
      3.902  0.1982E+02  0.1982E+02  0.4968E+02  0.4968E+02
      3.988  0.1995E+02  0.1995E+02  0.5139E+02  0.5139E+02
      4.074  0.1693E+02  0.1693E+02  0.5284E+02  0.5284E+02
      4.160  0.1626E+02  0.1626E+02  0.5424E+02  0.5424E+02
      4.246  0.1309E+02  0.1309E+02  0.5536E+02  0.5536E+02
      4.332  0.8792E+01  0.8792E+01  0.5612E+02  0.5612E+02
      4.418  0.7904E+01  0.7904E+01  0.5680E+02  0.5680E+02
      4.504  0.5986E+01  0.5986E+01  0.5731E+02  0.5731E+02
      4.590  0.7411E+01  0.7410E+01  0.5795E+02  0.5795E+02
      4.676  0.1271E+02  0.1271E+02  0.5904E+02  0.5904E+02
      4.762  0.1580E+02  0.1580E+02  0.6040E+02  0.6040E+02
      4.848  0.2038E+02  0.2038E+02  0.6215E+02  0.6215E+02
      4.934  0.2042E+02  0.2042E+02  0.6390E+02  0.6390E+02
      5.020  0.2063E+02  0.2063E+02  0.6567E+02  0.6567E+02
      5.107  0.2206E+02  0.2206E+02  0.6756E+02  0.6756E+02
      5.193  0.2218E+02  0.2218E+02  0.6947E+02  0.6947E+02
      5.279  0.2111E+02  0.2111E+02  0.7128E+02  0.7128E+02
      5.365  0.1937E+02  0.1937E+02  0.7294E+02  0.7294E+02
      5.451  0.1994E+02  0.1994E+02  0.7466E+02  0.7466E+02
      5.537  0.1803E+02  0.1803E+02  0.7621E+02  0.7621E+02
      5.623  0.1651E+02  0.1651E+02  0.7762E+02  0.7762E+02
      5.709  0.1271E+02  0.1271E+02  0.7871E+02  0.7871E+02
      5.795  0.1170E+02  0.1170E+02  0.7972E+02  0.7972E+02
      5.881  0.8086E+01  0.8086E+01  0.8041E+02  0.8041E+02
      5.967  0.3744E+01  0.3744E+01  0.8073E+02  0.8073E+02
      6.053  0.1814E+01  0.1814E+01  0.8089E+02  0.8089E+02
      6.139  0.1039E+01  0.1039E+01  0.8098E+02  0.8098E+02
      6.225  0.2379E+00  0.2379E+00  0.8100E+02  0.8100E+02
      6.311  0.2606E-02  0.2606E-02  0.8100E+02  0.8100E+02
      6.397  0.2094E-06  0.2094E-06  0.8100E+02  0.8100E+02
      6.483  0.6433E-13  0.6433E-13  0.8100E+02  0.8100E+02
      6.569  0.0000E+00  0.0000E+00  0.8100E+02  0.8100E+02
      6.655  0.6986E-15  0.6986E-15  0.8100E+02  0.8100E+02
      6.741  0.1096E-07  0.1096E-07  0.8100E+02  0.8100E+02
      6.827  0.5924E-03  0.5924E-03  0.8100E+02  0.8100E+02
      6.913  0.1670E+00  0.1670E+00  0.8101E+02  0.8101E+02
      6.999  0.1107E+01  0.1107E+01  0.8111E+02  0.8111E+02
      7.085  0.3322E+01  0.3322E+01  0.8139E+02  0.8139E+02
      7.171  0.6789E+01  0.6790E+01  0.8198E+02  0.8198E+02
      7.257  0.1072E+02  0.1072E+02  0.8290E+02  0.8290E+02
      7.343  0.1366E+02  0.1366E+02  0.8407E+02  0.8407E+02
      7.429  0.1503E+02  0.1503E+02  0.8536E+02  0.8536E+02
      7.515  0.1523E+02  0.1523E+02  0.8667E+02  0.8667E+02
      7.601  0.1602E+02  0.1602E+02  0.8805E+02  0.8805E+02
      7.687  0.1574E+02  0.1574E+02  0.8940E+02  0.8940E+02
      7.773  0.1586E+02  0.1586E+02  0.9076E+02  0.9076E+02
      7.859  0.1295E+02  0.1295E+02  0.9187E+02  0.9187E+02
      7.945  0.8948E+01  0.8948E+01  0.9264E+02  0.9264E+02
      8.031  0.5017E+01  0.5016E+01  0.9307E+02  0.9307E+02
      8.117  0.4314E+01  0.4313E+01  0.9344E+02  0.9344E+02
      8.203  0.7007E+01  0.7007E+01  0.9404E+02  0.9404E+02
      8.289  0.1173E+02  0.1173E+02  0.9505E+02  0.9505E+02
      8.375  0.1452E+02  0.1452E+02  0.9630E+02  0.9630E+02
      8.461  0.1682E+02  0.1682E+02  0.9774E+02  0.9774E+02
      8.547  0.1839E+02  0.1839E+02  0.9932E+02  0.9932E+02
      8.633  0.1772E+02  0.1772E+02  0.1008E+03  0.1008E+03
      8.719  0.2131E+02  0.2131E+02  0.1027E+03  0.1027E+03
      8.805  0.2071E+02  0.2071E+02  0.1044E+03  0.1044E+03
      8.891  0.2136E+02  0.2136E+02  0.1063E+03  0.1063E+03
      8.977  0.2245E+02  0.2245E+02  0.1082E+03  0.1082E+03
      9.063  0.2088E+02  0.2087E+02  0.1100E+03  0.1100E+03
      9.149  0.2321E+02  0.2321E+02  0.1120E+03  0.1120E+03
      9.235  0.2164E+02  0.2164E+02  0.1139E+03  0.1139E+03
      9.321  0.1992E+02  0.1992E+02  0.1156E+03  0.1156E+03
      9.407  0.2085E+02  0.2085E+02  0.1174E+03  0.1174E+03
      9.493  0.1845E+02  0.1845E+02  0.1189E+03  0.1189E+03
      9.579  0.1723E+02  0.1723E+02  0.1204E+03  0.1204E+03
      9.665  0.1431E+02  0.1431E+02  0.1216E+03  0.1216E+03
      9.751  0.1142E+02  0.1142E+02  0.1226E+03  0.1226E+03
      9.837  0.1322E+02  0.1322E+02  0.1238E+03  0.1238E+03
      9.923  0.1388E+02  0.1388E+02  0.1250E+03  0.1250E+03
     10.009  0.1744E+02  0.1744E+02  0.1265E+03  0.1265E+03
     10.095  0.1990E+02  0.1990E+02  0.1282E+03  0.1282E+03
     10.181  0.1875E+02  0.1875E+02  0.1298E+03  0.1298E+03
     10.267  0.2060E+02  0.2060E+02  0.1315E+03  0.1315E+03
     10.353  0.1990E+02  0.1990E+02  0.1333E+03  0.1333E+03
     10.439  0.2182E+02  0.2182E+02  0.1351E+03  0.1351E+03
     10.525  0.2174E+02  0.2174E+02  0.1370E+03  0.1370E+03
     10.612  0.2191E+02  0.2191E+02  0.1389E+03  0.1389E+03
     10.698  0.2182E+02  0.2182E+02  0.1407E+03  0.1407E+03
     10.784  0.1895E+02  0.1896E+02  0.1424E+03  0.1424E+03
     10.870  0.1754E+02  0.1754E+02  0.1439E+03  0.1439E+03
     10.956  0.1726E+02  0.1726E+02  0.1454E+03  0.1454E+03
     11.042  0.1425E+02  0.1425E+02  0.1466E+03  0.1466E+03
     11.128  0.1025E+02  0.1025E+02  0.1475E+03  0.1475E+03
     11.214  0.1083E+02  0.1083E+02  0.1484E+03  0.1484E+03
     11.300  0.1359E+02  0.1359E+02  0.1496E+03  0.1496E+03
     11.386  0.1743E+02  0.1743E+02  0.1511E+03  0.1511E+03
     11.472  0.1839E+02  0.1839E+02  0.1526E+03  0.1526E+03
     11.558  0.1935E+02  0.1935E+02  0.1543E+03  0.1543E+03
     11.644  0.2059E+02  0.2059E+02  0.1561E+03  0.1561E+03
     11.730  0.2031E+02  0.2031E+02  0.1578E+03  0.1578E+03
     11.816  0.2031E+02  0.2031E+02  0.1596E+03  0.1596E+03
     11.902  0.2165E+02  0.2165E+02  0.1614E+03  0.1614E+03
     11.988  0.1909E+02  0.1909E+02  0.1631E+03  0.1631E+03
     12.074  0.1927E+02  0.1927E+02  0.1647E+03  0.1647E+03
     12.160  0.1867E+02  0.1867E+02  0.1663E+03  0.1663E+03
     12.246  0.1748E+02  0.1748E+02  0.1678E+03  0.1678E+03
     12.332  0.1276E+02  0.1276E+02  0.1689E+03  0.1689E+03
     12.418  0.1004E+02  0.1004E+02  0.1698E+03  0.1698E+03
     12.504  0.7803E+01  0.7803E+01  0.1704E+03  0.1704E+03
     12.590  0.5849E+01  0.5849E+01  0.1709E+03  0.1709E+03
     12.676  0.5340E+01  0.5339E+01  0.1714E+03  0.1714E+03
     12.762  0.7540E+01  0.7540E+01  0.1720E+03  0.1720E+03
     12.848  0.7876E+01  0.7876E+01  0.1727E+03  0.1727E+03
     12.934  0.1037E+02  0.1037E+02  0.1736E+03  0.1736E+03
     13.020  0.1427E+02  0.1427E+02  0.1748E+03  0.1748E+03
     13.106  0.1346E+02  0.1346E+02  0.1760E+03  0.1760E+03
     13.192  0.1311E+02  0.1312E+02  0.1771E+03  0.1771E+03
     13.278  0.9690E+01  0.9690E+01  0.1780E+03  0.1780E+03
     13.364  0.8521E+01  0.8521E+01  0.1787E+03  0.1787E+03
     13.450  0.8158E+01  0.8158E+01  0.1794E+03  0.1794E+03
     13.536  0.1081E+02  0.1081E+02  0.1803E+03  0.1803E+03
     13.622  0.1269E+02  0.1269E+02  0.1814E+03  0.1814E+03
     13.708  0.1608E+02  0.1608E+02  0.1828E+03  0.1828E+03
     13.794  0.1853E+02  0.1853E+02  0.1844E+03  0.1844E+03
     13.880  0.1713E+02  0.1713E+02  0.1858E+03  0.1858E+03
     13.966  0.1649E+02  0.1649E+02  0.1873E+03  0.1873E+03
     14.052  0.1675E+02  0.1675E+02  0.1887E+03  0.1887E+03
     14.138  0.1946E+02  0.1946E+02  0.1904E+03  0.1904E+03
     14.224  0.1905E+02  0.1906E+02  0.1920E+03  0.1920E+03
     14.310  0.1768E+02  0.1768E+02  0.1935E+03  0.1935E+03
     14.396  0.1981E+02  0.1981E+02  0.1952E+03  0.1952E+03
     14.482  0.2073E+02  0.2073E+02  0.1970E+03  0.1970E+03
     14.568  0.1929E+02  0.1929E+02  0.1987E+03  0.1987E+03
     14.654  0.1955E+02  0.1955E+02  0.2003E+03  0.2003E+03
     14.740  0.1751E+02  0.1751E+02  0.2018E+03  0.2018E+03
     14.826  0.1703E+02  0.1703E+02  0.2033E+03  0.2033E+03
     14.912  0.1842E+02  0.1842E+02  0.2049E+03  0.2049E+03
     14.998  0.1942E+02  0.1942E+02  0.2066E+03  0.2066E+03
     15.084  0.2136E+02  0.2136E+02  0.2084E+03  0.2084E+03
     15.170  0.2307E+02  0.2307E+02  0.2104E+03  0.2104E+03
     15.256  0.2034E+02  0.2034E+02  0.2121E+03  0.2121E+03
     15.342  0.2260E+02  0.2260E+02  0.2141E+03  0.2141E+03
     15.428  0.2446E+02  0.2446E+02  0.2162E+03  0.2162E+03
     15.514  0.2616E+02  0.2616E+02  0.2184E+03  0.2184E+03
     15.600  0.2365E+02  0.2365E+02  0.2204E+03  0.2204E+03
     15.686  0.2658E+02  0.2658E+02  0.2227E+03  0.2227E+03
     15.772  0.2468E+02  0.2468E+02  0.2248E+03  0.2248E+03
     15.858  0.2278E+02  0.2278E+02  0.2268E+03  0.2268E+03
     15.944  0.2410E+02  0.2410E+02  0.2289E+03  0.2289E+03
     16.030  0.2469E+02  0.2469E+02  0.2310E+03  0.2310E+03
     16.116  0.2293E+02  0.2293E+02  0.2329E+03  0.2329E+03
     16.203  0.2238E+02  0.2238E+02  0.2349E+03  0.2349E+03
     16.289  0.2253E+02  0.2253E+02  0.2368E+03  0.2368E+03
     16.375  0.2363E+02  0.2362E+02  0.2388E+03  0.2388E+03
     16.461  0.2267E+02  0.2267E+02  0.2408E+03  0.2408E+03
     16.547  0.1965E+02  0.1964E+02  0.2425E+03  0.2425E+03
     16.633  0.2039E+02  0.2039E+02  0.2442E+03  0.2442E+03
     16.719  0.1747E+02  0.1747E+02  0.2457E+03  0.2457E+03
     16.805  0.1548E+02  0.1548E+02  0.2470E+03  0.2470E+03
     16.891  0.1351E+02  0.1351E+02  0.2482E+03  0.2482E+03
     16.977  0.1152E+02  0.1152E+02  0.2492E+03  0.2492E+03
     17.063  0.1166E+02  0.1167E+02  0.2502E+03  0.2502E+03
     17.149  0.7140E+01  0.7140E+01  0.2508E+03  0.2508E+03
     17.235  0.1989E+01  0.1990E+01  0.2510E+03  0.2510E+03
     17.321  0.2254E+00  0.2254E+00  0.2510E+03  0.2510E+03
     17.407  0.8491E-03  0.8488E-03  0.2510E+03  0.2510E+03
     17.493  0.1587E-04  0.1588E-04  0.2510E+03  0.2510E+03
     17.579  0.2844E-01  0.2844E-01  0.2510E+03  0.2510E+03
     17.665  0.9768E+00  0.9762E+00  0.2511E+03  0.2511E+03
     17.751  0.4076E+01  0.4075E+01  0.2514E+03  0.2514E+03
     17.837  0.7768E+01  0.7768E+01  0.2521E+03  0.2521E+03
     17.923  0.1132E+02  0.1132E+02  0.2531E+03  0.2531E+03
     18.009  0.1017E+02  0.1017E+02  0.2539E+03  0.2539E+03
     18.095  0.1184E+02  0.1184E+02  0.2550E+03  0.2550E+03
     18.181  0.1007E+02  0.1007E+02  0.2558E+03  0.2558E+03
     18.267  0.9754E+01  0.9754E+01  0.2567E+03  0.2567E+03
     18.353  0.1358E+02  0.1358E+02  0.2578E+03  0.2578E+03
     18.439  0.1669E+02  0.1669E+02  0.2593E+03  0.2593E+03
     18.525  0.1755E+02  0.1755E+02  0.2608E+03  0.2608E+03
     18.611  0.1817E+02  0.1817E+02  0.2623E+03  0.2623E+03
     18.697  0.1991E+02  0.1991E+02  0.2640E+03  0.2640E+03
     18.783  0.2226E+02  0.2226E+02  0.2660E+03  0.2660E+03
     18.869  0.2271E+02  0.2271E+02  0.2679E+03  0.2679E+03
     18.955  0.2379E+02  0.2379E+02  0.2700E+03  0.2699E+03
     19.041  0.2386E+02  0.2386E+02  0.2720E+03  0.2720E+03
     19.127  0.2600E+02  0.2600E+02  0.2742E+03  0.2742E+03
     19.213  0.2725E+02  0.2725E+02  0.2766E+03  0.2766E+03
     19.299  0.2775E+02  0.2776E+02  0.2790E+03  0.2790E+03
     19.385  0.2678E+02  0.2678E+02  0.2813E+03  0.2813E+03
     19.471  0.2799E+02  0.2799E+02  0.2837E+03  0.2837E+03
     19.557  0.2842E+02  0.2842E+02  0.2861E+03  0.2861E+03
     19.643  0.2755E+02  0.2755E+02  0.2885E+03  0.2885E+03
     19.729  0.2696E+02  0.2695E+02  0.2908E+03  0.2908E+03
     19.815  0.2658E+02  0.2659E+02  0.2931E+03  0.2931E+03
     19.901  0.2701E+02  0.2703E+02  0.2954E+03  0.2954E+03
     19.987  0.2551E+02  0.2553E+02  0.2976E+03  0.2976E+03
     20.073  0.2361E+02  0.2364E+02  0.2996E+03  0.2996E+03
     20.159  0.2047E+02  0.2016E+02  0.3014E+03  0.3013E+03
     20.245  0.1879E+02  0.1845E+02  0.3030E+03  0.3029E+03
     20.331  0.1145E+02  0.1195E+02  0.3039E+03  0.3039E+03
     20.417  0.5914E+00  0.6599E+00  0.3040E+03  0.3040E+03
     20.503  0.2902E-03  0.3335E-03  0.3040E+03  0.3040E+03
     20.589  0.5815E-09  0.6725E-09  0.3040E+03  0.3040E+03
     20.675  0.0000E+00  0.0000E+00  0.3040E+03  0.3040E+03
     20.761  0.0000E+00  0.0000E+00  0.3040E+03  0.3040E+03
     20.847  0.0000E+00  0.0000E+00  0.3040E+03  0.3040E+03
     20.933  0.0000E+00  0.0000E+00  0.3040E+03  0.3040E+03
     21.019  0.0000E+00  0.0000E+00  0.3040E+03  0.3040E+03
     21.105  0.0000E+00  0.0000E+00  0.3040E+03  0.3040E+03
     21.191  0.0000E+00  0.0000E+00  0.3040E+03  0.3040E+03
     21.277  0.0000E+00  0.0000E+00  0.3040E+03  0.3040E+03
     21.363  0.0000E+00  0.0000E+00  0.3040E+03  0.3040E+03
     21.449  0.0000E+00  0.0000E+00  0.3040E+03  0.3040E+03
     21.47968246     -4.34108002  301     14.65740710      1.00000000
     -4.341  0.0000E+00  0.0000E+00  0.0000E+00  0.0000E+00
     -4.255  0.0000E+00  0.0000E+00  0.0000E+00  0.0000E+00
     -4.169  0.0000E+00  0.0000E+00  0.0000E+00  0.0000E+00
     -4.083  0.0000E+00  0.0000E+00  0.0000E+00  0.0000E+00
     -3.997  0.0000E+00  0.0000E+00  0.0000E+00  0.0000E+00
     -3.911  0.0000E+00  0.0000E+00  0.0000E+00  0.0000E+00
     -3.825  0.0000E+00  0.0000E+00  0.0000E+00  0.0000E+00
     -3.739  0.0000E+00  0.0000E+00  0.0000E+00  0.0000E+00
     -3.653  0.0000E+00  0.0000E+00  0.0000E+00  0.0000E+00
     -3.566  0.0000E+00  0.0000E+00  0.0000E+00  0.0000E+00
     -3.480  0.0000E+00  0.0000E+00  0.0000E+00  0.0000E+00
     -3.394  0.8022E-11  0.8022E-11  0.6905E-12  0.6905E-12
     -3.308  0.3944E-05  0.3944E-05  0.3394E-06  0.3394E-06
     -3.222  0.7045E-02  0.7045E-02  0.6067E-03  0.6067E-03
     -3.136  0.8729E-01  0.8729E-01  0.8120E-02  0.8120E-02
     -3.050  0.2179E-01  0.2179E-01  0.9995E-02  0.9995E-02
     -2.964  0.5236E-04  0.5236E-04  0.1000E-01  0.1000E-01
     -2.878  0.5062E-09  0.5062E-09  0.1000E-01  0.1000E-01
     -2.792  0.1290E-16  0.1290E-16  0.1000E-01  0.1000E-01
     -2.706  0.0000E+00  0.0000E+00  0.1000E-01  0.1000E-01
     -2.620  0.0000E+00  0.0000E+00  0.1000E-01  0.1000E-01
     -2.534  0.0000E+00  0.0000E+00  0.1000E-01  0.1000E-01
     -2.448  0.0000E+00  0.0000E+00  0.1000E-01  0.1000E-01
     -2.361  0.2744E-10  0.2746E-10  0.1000E-01  0.1000E-01
     -2.275  0.8624E-05  0.8629E-05  0.1000E-01  0.1000E-01
     -2.189  0.1010E-01  0.1011E-01  0.1087E-01  0.1087E-01
     -2.103  0.8970E-01  0.8970E-01  0.1859E-01  0.1859E-01
     -2.017  0.3305E-01  0.3304E-01  0.2144E-01  0.2144E-01
     -1.931  0.8977E-01  0.8977E-01  0.2916E-01  0.2916E-01
     -1.845  0.4327E-01  0.4327E-01  0.3289E-01  0.3289E-01
     -1.759  0.8351E-01  0.8351E-01  0.4007E-01  0.4007E-01
     -1.673  0.1178E+00  0.1178E+00  0.5021E-01  0.5021E-01
     -1.587  0.1690E+00  0.1690E+00  0.6476E-01  0.6476E-01
     -1.501  0.6011E-01  0.6010E-01  0.6993E-01  0.6993E-01
     -1.415  0.8095E-03  0.8091E-03  0.7000E-01  0.7000E-01
     -1.329  0.5745E-07  0.5740E-07  0.7000E-01  0.7000E-01
     -1.243  0.8907E-09  0.8920E-09  0.7000E-01  0.7000E-01
     -1.157  0.7359E-04  0.7365E-04  0.7001E-01  0.7001E-01
     -1.070  0.2491E-01  0.2492E-01  0.7215E-01  0.7215E-01
     -0.984  0.8540E-01  0.8539E-01  0.7950E-01  0.7950E-01
     -0.898  0.5800E-02  0.5797E-02  0.8000E-01  0.8000E-01
     -0.812  0.4221E-05  0.4217E-05  0.8000E-01  0.8000E-01
     -0.726  0.5187E-02  0.5186E-02  0.8045E-01  0.8045E-01
     -0.640  0.1395E+00  0.1395E+00  0.9245E-01  0.9246E-01
     -0.554  0.1707E+00  0.1707E+00  0.1071E+00  0.1072E+00
     -0.468  0.6755E-01  0.6754E-01  0.1130E+00  0.1130E+00
     -0.382  0.1415E+00  0.1415E+00  0.1251E+00  0.1251E+00
     -0.296  0.1738E+00  0.1738E+00  0.1401E+00  0.1401E+00
     -0.210  0.1138E+00  0.1138E+00  0.1499E+00  0.1499E+00
     -0.124  0.8339E-01  0.8341E-01  0.1571E+00  0.1571E+00
     -0.038  0.1911E+00  0.1911E+00  0.1735E+00  0.1735E+00
      0.048  0.1596E+00  0.1596E+00  0.1873E+00  0.1873E+00
      0.135  0.3178E-01  0.3179E-01  0.1900E+00  0.1900E+00
      0.221  0.1199E-03  0.1200E-03  0.1900E+00  0.1900E+00
      0.307  0.2017E-08  0.2019E-08  0.1900E+00  0.1900E+00
      0.393  0.3745E-12  0.3732E-12  0.1900E+00  0.1900E+00
      0.479  0.5347E-06  0.5335E-06  0.1900E+00  0.1900E+00
      0.565  0.2639E-02  0.2635E-02  0.1902E+00  0.1902E+00
      0.651  0.7502E-01  0.7500E-01  0.1967E+00  0.1967E+00
      0.737  0.6321E-01  0.6323E-01  0.2021E+00  0.2021E+00
      0.823  0.9366E-01  0.9366E-01  0.2102E+00  0.2102E+00
      0.909  0.9881E-01  0.9881E-01  0.2187E+00  0.2187E+00
      0.995  0.1171E+00  0.1171E+00  0.2288E+00  0.2288E+00
      1.081  0.1199E+00  0.1198E+00  0.2391E+00  0.2391E+00
      1.167  0.7697E-01  0.7697E-01  0.2457E+00  0.2457E+00
      1.253  0.1287E+00  0.1287E+00  0.2568E+00  0.2568E+00
      1.339  0.3717E-01  0.3717E-01  0.2600E+00  0.2600E+00
      1.426  0.1545E-02  0.1547E-02  0.2601E+00  0.2601E+00
      1.512  0.6420E-01  0.6421E-01  0.2656E+00  0.2656E+00
      1.598  0.5010E-01  0.5009E-01  0.2700E+00  0.2700E+00
      1.684  0.5484E-03  0.5479E-03  0.2700E+00  0.2700E+00
      1.770  0.2849E-07  0.2843E-07  0.2700E+00  0.2700E+00
      1.856  0.1631E-05  0.1631E-05  0.2700E+00  0.2700E+00
      1.942  0.4612E-02  0.4611E-02  0.2704E+00  0.2704E+00
      2.028  0.8318E-01  0.8318E-01  0.2776E+00  0.2776E+00
      2.114  0.7545E-01  0.7545E-01  0.2840E+00  0.2841E+00
      2.200  0.7007E-01  0.7007E-01  0.2901E+00  0.2901E+00
      2.286  0.7970E-01  0.7969E-01  0.2969E+00  0.2969E+00
      2.372  0.1207E+00  0.1207E+00  0.3073E+00  0.3073E+00
      2.458  0.1087E+00  0.1088E+00  0.3167E+00  0.3167E+00
      2.544  0.3864E-01  0.3864E-01  0.3200E+00  0.3200E+00
      2.631  0.4510E-01  0.4512E-01  0.3239E+00  0.3239E+00
      2.717  0.6912E-01  0.6910E-01  0.3298E+00  0.3298E+00
      2.803  0.1816E-02  0.1814E-02  0.3300E+00  0.3300E+00
      2.889  0.2669E-06  0.2664E-06  0.3300E+00  0.3300E+00
      2.975  0.2586E-03  0.2587E-03  0.3300E+00  0.3300E+00
      3.061  0.5026E-01  0.5027E-01  0.3343E+00  0.3343E+00
      3.147  0.1895E+00  0.1895E+00  0.3507E+00  0.3507E+00
      3.233  0.1722E+00  0.1722E+00  0.3655E+00  0.3655E+00
      3.319  0.1640E+00  0.1641E+00  0.3796E+00  0.3796E+00
      3.405  0.1533E+00  0.1532E+00  0.3928E+00  0.3928E+00
      3.491  0.2379E+00  0.2380E+00  0.4133E+00  0.4133E+00
      3.577  0.2109E+00  0.2109E+00  0.4314E+00  0.4314E+00
      3.663  0.1968E+00  0.1968E+00  0.4484E+00  0.4484E+00
      3.749  0.1734E+00  0.1734E+00  0.4633E+00  0.4633E+00
      3.835  0.1733E+00  0.1733E+00  0.4782E+00  0.4782E+00
      3.922  0.2357E+00  0.2357E+00  0.4985E+00  0.4985E+00
      4.008  0.1918E+00  0.1918E+00  0.5150E+00  0.5150E+00
      4.094  0.1525E+00  0.1525E+00  0.5281E+00  0.5281E+00
      4.180  0.1444E+00  0.1444E+00  0.5405E+00  0.5405E+00
      4.266  0.1110E+00  0.1110E+00  0.5501E+00  0.5501E+00
      4.352  0.9611E-01  0.9613E-01  0.5584E+00  0.5584E+00
      4.438  0.1135E+00  0.1135E+00  0.5681E+00  0.5681E+00
      4.524  0.6903E-01  0.6903E-01  0.5741E+00  0.5741E+00
      4.610  0.1070E+00  0.1070E+00  0.5833E+00  0.5833E+00
      4.696  0.1087E+00  0.1087E+00  0.5926E+00  0.5926E+00
      4.782  0.1349E+00  0.1348E+00  0.6043E+00  0.6043E+00
      4.868  0.2251E+00  0.2251E+00  0.6236E+00  0.6236E+00
      4.954  0.2593E+00  0.2593E+00  0.6459E+00  0.6459E+00
      5.040  0.1652E+00  0.1652E+00  0.6602E+00  0.6602E+00
      5.127  0.2185E+00  0.2184E+00  0.6790E+00  0.6790E+00
      5.213  0.1846E+00  0.1847E+00  0.6949E+00  0.6949E+00
      5.299  0.2519E+00  0.2519E+00  0.7165E+00  0.7165E+00
      5.385  0.2044E+00  0.2044E+00  0.7341E+00  0.7341E+00
      5.471  0.2014E+00  0.2014E+00  0.7515E+00  0.7515E+00
      5.557  0.1063E+00  0.1063E+00  0.7606E+00  0.7606E+00
      5.643  0.9713E-01  0.9712E-01  0.7690E+00  0.7690E+00
      5.729  0.1542E+00  0.1542E+00  0.7822E+00  0.7822E+00
      5.815  0.1943E+00  0.1943E+00  0.7990E+00  0.7990E+00
      5.901  0.6234E-01  0.6234E-01  0.8043E+00  0.8043E+00
      5.987  0.6456E-01  0.6458E-01  0.8099E+00  0.8099E+00
      6.073  0.1367E-02  0.1368E-02  0.8100E+00  0.8100E+00
      6.159  0.1519E-06  0.1521E-06  0.8100E+00  0.8100E+00
      6.245  0.5686E-13  0.5699E-13  0.8100E+00  0.8100E+00
      6.332  0.0000E+00  0.0000E+00  0.8100E+00  0.8100E+00
      6.418  0.0000E+00  0.0000E+00  0.8100E+00  0.8100E+00
      6.504  0.0000E+00  0.0000E+00  0.8100E+00  0.8100E+00
      6.590  0.0000E+00  0.0000E+00  0.8100E+00  0.8100E+00
      6.676  0.0000E+00  0.0000E+00  0.8100E+00  0.8100E+00
      6.762  0.0000E+00  0.0000E+00  0.8100E+00  0.8100E+00
      6.848  0.0000E+00  0.0000E+00  0.8100E+00  0.8100E+00
      6.934  0.3390E-12  0.3411E-12  0.8100E+00  0.8100E+00
      7.020  0.5007E-06  0.5028E-06  0.8100E+00  0.8100E+00
      7.106  0.2551E-02  0.2557E-02  0.8102E+00  0.8102E+00
      7.192  0.7493E-01  0.7496E-01  0.8167E+00  0.8167E+00
      7.278  0.1131E+00  0.1131E+00  0.8264E+00  0.8264E+00
      7.364  0.1846E+00  0.1846E+00  0.8423E+00  0.8423E+00
      7.450  0.2094E+00  0.2094E+00  0.8603E+00  0.8603E+00
      7.536  0.1689E+00  0.1690E+00  0.8749E+00  0.8749E+00
      7.623  0.6077E-01  0.6074E-01  0.8801E+00  0.8801E+00
      7.709  0.9509E-01  0.9507E-01  0.8883E+00  0.8883E+00
      7.795  0.2073E+00  0.2074E+00  0.9061E+00  0.9061E+00
      7.881  0.1562E+00  0.1562E+00  0.9196E+00  0.9196E+00
      7.967  0.1092E+00  0.1092E+00  0.9290E+00  0.9290E+00
      8.053  0.5590E-01  0.5592E-01  0.9338E+00  0.9338E+00
      8.139  0.7057E-01  0.7055E-01  0.9398E+00  0.9398E+00
      8.225  0.3803E-01  0.3803E-01  0.9431E+00  0.9431E+00
      8.311  0.1741E+00  0.1741E+00  0.9581E+00  0.9581E+00
      8.397  0.1649E+00  0.1649E+00  0.9723E+00  0.9723E+00
      8.483  0.1495E+00  0.1495E+00  0.9852E+00  0.9852E+00
      8.569  0.2643E+00  0.2643E+00  0.1008E+01  0.1008E+01
      8.655  0.1111E+00  0.1111E+00  0.1017E+01  0.1017E+01
      8.741  0.1649E+00  0.1649E+00  0.1032E+01  0.1032E+01
      8.828  0.1862E+00  0.1861E+00  0.1048E+01  0.1048E+01
      8.914  0.2429E+00  0.2429E+00  0.1069E+01  0.1069E+01
      9.000  0.2080E+00  0.2080E+00  0.1086E+01  0.1086E+01
      9.086  0.1927E+00  0.1926E+00  0.1103E+01  0.1103E+01
      9.172  0.1912E+00  0.1912E+00  0.1120E+01  0.1120E+01
      9.258  0.1648E+00  0.1648E+00  0.1134E+01  0.1134E+01
      9.344  0.2745E+00  0.2745E+00  0.1157E+01  0.1157E+01
      9.430  0.1738E+00  0.1738E+00  0.1172E+01  0.1172E+01
      9.516  0.2118E+00  0.2118E+00  0.1191E+01  0.1191E+01
      9.602  0.2529E+00  0.2530E+00  0.1212E+01  0.1212E+01
      9.688  0.1595E+00  0.1595E+00  0.1226E+01  0.1226E+01
      9.774  0.7463E-01  0.7463E-01  0.1232E+01  0.1232E+01
      9.860  0.1910E+00  0.1909E+00  0.1249E+01  0.1249E+01
      9.946  0.1220E+00  0.1220E+00  0.1259E+01  0.1259E+01
     10.032  0.1155E+00  0.1156E+00  0.1269E+01  0.1269E+01
     10.119  0.1560E+00  0.1560E+00  0.1283E+01  0.1283E+01
     10.205  0.1994E+00  0.1994E+00  0.1300E+01  0.1300E+01
     10.291  0.3022E+00  0.3022E+00  0.1326E+01  0.1326E+01
     10.377  0.2177E+00  0.2177E+00  0.1345E+01  0.1345E+01
     10.463  0.1271E+00  0.1271E+00  0.1356E+01  0.1356E+01
     10.549  0.1683E+00  0.1683E+00  0.1370E+01  0.1370E+01
     10.635  0.2793E+00  0.2792E+00  0.1394E+01  0.1394E+01
     10.721  0.2221E+00  0.2221E+00  0.1413E+01  0.1413E+01
     10.807  0.1603E+00  0.1603E+00  0.1427E+01  0.1427E+01
     10.893  0.1872E+00  0.1873E+00  0.1443E+01  0.1443E+01
     10.979  0.1874E+00  0.1873E+00  0.1459E+01  0.1459E+01
     11.065  0.3900E-01  0.3900E-01  0.1463E+01  0.1463E+01
     11.151  0.1754E+00  0.1754E+00  0.1478E+01  0.1478E+01
     11.237  0.5572E-01  0.5572E-01  0.1483E+01  0.1483E+01
     11.324  0.1766E+00  0.1767E+00  0.1498E+01  0.1498E+01
     11.410  0.1753E+00  0.1753E+00  0.1513E+01  0.1513E+01
     11.496  0.2971E+00  0.2970E+00  0.1538E+01  0.1538E+01
     11.582  0.1363E+00  0.1363E+00  0.1550E+01  0.1550E+01
     11.668  0.1597E+00  0.1597E+00  0.1564E+01  0.1564E+01
     11.754  0.3101E+00  0.3101E+00  0.1591E+01  0.1591E+01
     11.840  0.2104E+00  0.2104E+00  0.1609E+01  0.1609E+01
     11.926  0.1761E+00  0.1762E+00  0.1624E+01  0.1624E+01
     12.012  0.2244E+00  0.2244E+00  0.1643E+01  0.1643E+01
     12.098  0.1960E+00  0.1960E+00  0.1660E+01  0.1660E+01
     12.184  0.1233E+00  0.1233E+00  0.1671E+01  0.1671E+01