  100  100  100    2
  0.1064800E+02  0.1021149E-08  0.1021149E-08  0.1021149E-08  0.3000000E-14
   2000.00000000000     
  CAR 
 unknown system                          
    400      1    304
 
  0.0000000E+00  0.0000000E+00  0.0000000E+00  0.1000000E+01
    1       -3.167409     -3.167409   1.000000   1.000000
    2       -2.141294     -2.141299   1.000000   1.000000
    3       -1.979608     -1.979607   1.000000   1.000000
    4       -1.825365     -1.825369   1.000000   1.000000
    5       -1.695559     -1.695569   1.000000   1.000000
    6       -1.651741     -1.651745   1.000000   1.000000
    7       -1.587750     -1.587756   1.000000   1.000000
    8       -1.042555     -1.042564   1.000000   1.000000
    9       -0.663806     -0.663802   1.000000   1.000000
   10       -0.636893     -0.636904   1.000000   1.000000
   11       -0.575069     -0.575078   1.000000   1.000000
   12       -0.448285     -0.448288   1.000000   1.000000
   13       -0.383862     -0.383866   1.000000   1.000000
   14       -0.308853     -0.308857   1.000000   1.000000
   15       -0.284395     -0.284391   1.000000   1.000000
   16       -0.126451     -0.126463   1.000000   1.000000
   17       -0.090370     -0.090375   1.000000   1.000000
   18       -0.027640     -0.027642   1.000000   1.000000
   19        0.025575      0.025581   1.000000   1.000000
   20        0.635599      0.635616   1.000000   1.000000
   21        0.764976      0.764973   1.000000   1.000000
   22        0.875608      0.875599   1.000000   1.000000
   23        0.970942      0.970931   1.000000   1.000000
   24        1.036171      1.036174   1.000000   1.000000
   25        1.163291      1.163293   1.000000   1.000000
   26        1.236520      1.236517   1.000000   1.000000
   27        1.505925      1.505912   1.000000   1.000000
   28        2.003988      2.003991   1.000000   1.000000
   29        2.122530      2.122526   1.000000   1.000000
   30        2.271312      2.271315   1.000000   1.000000
   31        2.352567      2.352573   1.000000   1.000000
   32        2.442825      2.442826   1.000000   1.000000
   33        2.640451      2.640437   1.000000   1.000000
   34        3.075868      3.075866   1.000000   1.000000
   35        3.106468      3.106466   1.000000   1.000000
   36        3.176625      3.176627   1.000000   1.000000
   37        3.225319      3.225311   1.000000   1.000000
   38        3.310725      3.310714   1.000000   1.000000
   39        3.330894      3.330894   1.000000   1.000000
   40        3.431264      3.431264   1.000000   1.000000
   41        3.459666      3.459656   1.000000   1.000000
   42        3.489692      3.489689   1.000000   1.000000
   43        3.554330      3.554331   1.000000   1.000000
   44        3.588245      3.588248   1.000000   1.000000
   45        3.644688      3.644687   1.000000   1.000000
   46        3.700167      3.700157   1.000000   1.000000
   47        3.758525      3.758539   1.000000   1.000000
   48        3.828583      3.828586   1.000000   1.000000
   49        3.860032      3.860028   1.000000   1.000000
   50        3.915720      3.915713   1.000000   1.000000
   51        3.937988      3.937989   1.000000   1.000000
   52        4.008979      4.008976   1.000000   1.000000
   53        4.068192      4.068202   1.000000   1.000000
   54        4.150412      4.150404   1.000000   1.000000
   55        4.202695      4.202710   1.000000   1.000000
   56        4.324990      4.324981   1.000000   1.000000
   57        4.406861      4.406853   1.000000   1.000000
   58        4.532453      4.532446   1.000000   1.000000
   59        4.624527      4.624520   1.000000   1.000000
   60        4.716605      4.716592   1.000000   1.000000
   61        4.789504      4.789509   1.000000   1.000000
   62        4.847227      4.847234   1.000000   1.000000
   63        4.874313      4.874300   1.000000   1.000000
   64        4.898200      4.898197   1.000000   1.000000
   65        4.941758      4.941770   1.000000   1.000000
   66        5.025230      5.025223   1.000000   1.000000
   67        5.062929      5.062926   1.000000   1.000000
   68        5.087920      5.087925   1.000000   1.000000
   69        5.180379      5.180367   1.000000   1.000000
   70        5.211571      5.211561   1.000000   1.000000
   71        5.252773      5.252761   1.000000   1.000000
   72        5.280403      5.280394   1.000000   1.000000
   73        5.357931      5.357931   1.000000   1.000000
   74        5.376399      5.376398   1.000000   1.000000
   75        5.445833      5.445827   1.000000   1.000000
   76        5.480628      5.480608   1.000000   1.000000
   77        5.607170      5.607189   1.000000   1.000000
   78        5.700652      5.700651   1.000000   1.000000
   79        5.750074      5.750075   1.000000   1.000000
   80        5.764213      5.764240   1.000000   1.000000
   81        5.907158      5.907169   1.000000   1.000000
   82        7.177358      7.177327   1.000000   1.000000
   83        7.288314      7.288316   1.000000   1.000000
   84        7.301704      7.301705   1.000000   1.000000
   85        7.387734      7.387733   1.000000   1.000000
   86        7.432971      7.432986   1.000000   1.000000
   87        7.461877      7.461883   1.000000   1.000000
   88        7.536080      7.536060   1.000000   1.000000
   89        7.699340      7.699344   1.000000   1.000000
   90        7.737170      7.737183   1.000000   1.000000
   91        7.786642      7.786633   1.000000   1.000000
   92        7.845174      7.845164   1.000000   1.000000
   93        7.922858      7.922871   1.000000   1.000000
   94        8.063957      8.063945   1.000000   1.000000
   95        8.245578      8.245576   1.000000   1.000000
   96        8.291009      8.291013   1.000000   1.000000
   97        8.351716      8.351715   1.000000   1.000000
   98        8.412872      8.412864   1.000000   1.000000
   99        8.505712      8.505712   1.000000   1.000000
  100        8.518490      8.518492   1.000000   1.000000
  101        8.525181      8.525180   1.000000   1.000000
  102        8.656360      8.656351   1.000000   1.000000
  103        8.678425      8.678419   1.000000   1.000000
  104        8.771402      8.771394   1.000000   1.000000
  105        8.821687      8.821702   1.000000   1.000000
  106        8.854312      8.854308   1.000000   1.000000
  107        8.892053      8.892049   1.000000   1.000000
  108        8.948682      8.948693   1.000000   1.000000
  109        8.985757      8.985753   1.000000   1.000000
  110        9.052737      9.052736   1.000000   1.000000
  111        9.090474      9.090498   1.000000   1.000000
  112        9.148585      9.148583   1.000000   1.000000
  113        9.199306      9.199302   1.000000   1.000000
  114        9.280865      9.280850   1.000000   1.000000
  115        9.294660      9.294762   1.000000   1.000000
  116        9.336041      9.336044   1.000000   1.000000
  117        9.366251      9.366219   1.000000   1.000000
  118        9.457752      9.457744   1.000000   1.000000
  119        9.487426      9.487438   1.000000   1.000000
  120        9.539604      9.539610   1.000000   1.000000
  121        9.573379      9.573386   1.000000   1.000000
  122        9.605606      9.605607   1.000000   1.000000
  123        9.678159      9.678164   1.000000   1.000000
  124        9.805629      9.805629   1.000000   1.000000
  125        9.829303      9.829328   1.000000   1.000000
  126        9.898698      9.898748   1.000000   1.000000
  127       10.014845     10.014837   1.000000   1.000000
  128       10.057457     10.057445   1.000000   1.000000
  129       10.136508     10.136510   1.000000   1.000000
  130       10.198622     10.198593   1.000000   1.000000
  131       10.231011     10.231028   1.000000   1.000000
  132       10.232998     10.232996   1.000000   1.000000
  133       10.284156     10.284157   1.000000   1.000000
  134       10.334441     10.334430   1.000000   1.000000
  135       10.369769     10.369770   1.000000   1.000000
  136       10.461915     10.461908   1.000000   1.000000
  137       10.519554     10.519543   1.000000   1.000000
  138       10.584178     10.584166   1.000000   1.000000
  139       10.605936     10.605918   1.000000   1.000000
  140       10.637758     10.637765   1.000000   1.000000
  141       10.661878     10.661896   1.000000   1.000000
  142       10.734074     10.734091   1.000000   1.000000
  143       10.790461     10.790457   1.000000   1.000000
  144       10.869636     10.869642   1.000000   1.000000
  145       10.905418     10.905376   1.000000   1.000000
  146       10.922315     10.922307   1.000000   1.000000
  147       11.095906     11.095897   1.000000   1.000000
  148       11.117539     11.117533   1.000000   1.000000
  149       11.266371     11.266370   1.000000   1.000000
  150       11.296897     11.296902   1.000000   1.000000
  151       11.381931     11.381882   1.000000   1.000000
  152       11.423898     11.423908   1.000000   1.000000
  153       11.447445     11.447441   1.000000   1.000000
  154       11.490014     11.490018   1.000000   1.000000
  155       11.506144     11.506135   1.000000   1.000000
  156       11.648966     11.648995   1.000000   1.000000
  157       11.678129     11.678113   1.000000   1.000000
  158       11.691541     11.691526   1.000000   1.000000
  159       11.727244     11.727241   1.000000   1.000000
  160       11.775893     11.775897   1.000000   1.000000
  161       11.805834     11.805834   1.000000   1.000000
  162       11.894258     11.894257   1.000000   1.000000
  163       11.926421     11.926395   1.000000   1.000000
  164       11.978568     11.978602   1.000000   1.000000
  165       12.021599     12.021578   1.000000   1.000000
  166       12.057533     12.057522   1.000000   1.000000
  167       12.136191     12.136211   1.000000   1.000000
  168       12.221119     12.221118   1.000000   1.000000
  169       12.301228     12.301219   1.000000   1.000000
  170       12.374852     12.374851   1.000000   1.000000
  171       12.542460     12.542495   1.000000   1.000000
  172       12.817661     12.817690   1.000000   1.000000
  173       12.864608     12.864590   1.000000   1.000000
  174       12.958167     12.958181   1.000000   1.000000
  175       12.976118     12.976122   1.000000   1.000000
  176       12.997507     12.997492   1.000000   1.000000
  177       13.283052     13.283067   1.000000   1.000000
  178       13.296040     13.296003   1.000000   1.000000
  179       13.366755     13.366733   1.000000   1.000000
  180       13.420765     13.420779   1.000000   1.000000
  181       13.461336     13.461358   1.000000   1.000000
  182       13.595691     13.595695   1.000000   1.000000
  183       13.630497     13.630484   1.000000   1.000000
  184       13.699782     13.699774   1.000000   1.000000
  185       13.771294     13.771373   1.000000   1.000000
  186       13.837306     13.837307   1.000000   1.000000
  187       13.913752     13.913776   1.000000   1.000000
  188       13.996954     13.996953   1.000000   1.000000
  189       14.037215     14.037205   1.000000   1.000000
  190       14.105139     14.105140   1.000000   1.000000
  191       14.114723     14.114700   1.000000   1.000000
  192       14.145391     14.145400   1.000000   1.000000
  193       14.201607     14.201630   1.000000   1.000000
  194       14.280239     14.280234   1.000000   1.000000
  195       14.301411     14.301405   1.000000   1.000000
  196       14.429771     14.429775   1.000000   1.000000
  197       14.452447     14.452425   1.000000   1.000000
  198       14.473858     14.473844   1.000000   1.000000
  199       14.524784     14.524834   0.999912   0.999911
  200       14.623941     14.623925   0.828066   0.828184
  201       14.694045     14.694019   0.150034   0.150207
  202       14.730294     14.730322   0.019625   0.019588
  203       14.757916     14.757914   0.002236   0.002236
  204       14.839376     14.839324   0.000000   0.000000
  205       14.894633     14.894622   0.000000   0.000000
  206       14.920584     14.920604   0.000000   0.000000
  207       14.970108     14.970033   0.000000   0.000000
  208       15.059307     15.059272   0.000000   0.000000
  209       15.127328     15.127388   0.000000   0.000000
  210       15.171704     15.171742   0.000000   0.000000
  211       15.225059     15.225081   0.000000   0.000000
  212       15.251137     15.251178   0.000000   0.000000
  213       15.271438     15.271458   0.000000   0.000000
  214       15.332618     15.332609   0.000000   0.000000
  215       15.373946     15.373948   0.000000   0.000000
  216       15.378084     15.378075   0.000000   0.000000
  217       15.440929     15.440955   0.000000   0.000000
  218       15.504614     15.504703   0.000000   0.000000
  219       15.556139     15.556143   0.000000   0.000000
  220       15.582776     15.582786   0.000000   0.000000
  221       15.614411     15.614442   0.000000   0.000000
  222       15.675797     15.675857   0.000000   0.000000
  223       15.693938     15.693994   0.000000   0.000000
  224       15.713346     15.713394   0.000000   0.000000
  225       15.787652     15.787689   0.000000   0.000000
  226       15.807921     15.807920   0.000000   0.000000
  227       15.863822     15.863781   0.000000   0.000000
  228       15.897845     15.897813   0.000000   0.000000
  229       15.945810     15.945806   0.000000   0.000000
  230       15.978863     15.978865   0.000000   0.000000
  231       15.998197     15.998203   0.000000   0.000000
  232       16.063039     16.063008   0.000000   0.000000
  233       16.098227     16.098223   0.000000   0.000000
  234       16.176922     16.176911   0.000000   0.000000
  235       16.195877     16.195849   0.000000   0.000000
  236       16.247061     16.247062   0.000000   0.000000
  237       16.309080     16.309095   0.000000   0.000000
  238       16.378125     16.378100   0.000000   0.000000
  239       16.401368     16.401183   0.000000   0.000000
  240       16.471429     16.471530   0.000000   0.000000
  241       16.481191     16.481165   0.000000   0.000000
  242       16.528179     16.528193   0.000000   0.000000
  243       16.578523     16.578513   0.000000   0.000000
  244       16.616680     16.616705   0.000000   0.000000
  245       16.629363     16.629313   0.000000   0.000000
  246       16.688826     16.688800   0.000000   0.000000
  247       16.744734     16.744757   0.000000   0.000000
  248       16.803027     16.803012   0.000000   0.000000
  249       16.890853     16.890860   0.000000   0.000000
  250       16.902961     16.903101   0.000000   0.000000
  251       17.027095     17.027127   0.000000   0.000000
  252       17.833073     17.833001   0.000000   0.000000
  253       17.873526     17.873376   0.000000   0.000000
  254       17.941960     17.941971   0.000000   0.000000
  255       18.010589     18.010612   0.000000   0.000000
  256       18.052337     18.052330   0.000000   0.000000
  257       18.278458     18.278511   0.000000   0.000000
  258       18.335154     18.335088   0.000000   0.000000
  259       18.418876     18.418862   0.000000   0.000000
  260       18.467079     18.467094   0.000000   0.000000
  261       18.569560     18.569567   0.000000   0.000000
  262       18.620638     18.620820   0.000000   0.000000
  263       18.681622     18.681552   0.000000   0.000000
  264       18.687469     18.687555   0.000000   0.000000
  265       18.741764     18.741758   0.000000   0.000000
  266       18.768261     18.768131   0.000000   0.000000
  267       18.799731     18.799490   0.000000   0.000000
  268       18.826376     18.827283   0.000000   0.000000
  269       18.865961     18.865984   0.000000   0.000000
  270       18.920208     18.920038   0.000000   0.000000
  271       18.933987     18.934133   0.000000   0.000000
  272       18.967444     18.967831   0.000000   0.000000
  273       19.047037     19.047316   0.000000   0.000000
  274       19.086069     19.085986   0.000000   0.000000
  275       19.110939     19.111257   0.000000   0.000000
  276       19.149145     19.148989   0.000000   0.000000
  277       19.205372     19.205070   0.000000   0.000000
  278       19.244513     19.244535   0.000000   0.000000
  279       19.265271     19.265148   0.000000   0.000000
  280       19.277726     19.278151   0.000000   0.000000
  281       19.316066     19.315536   0.000000   0.000000
  282       19.362981     19.363594   0.000000   0.000000
  283       19.386949     19.386831   0.000000   0.000000
  284       19.451135     19.451432   0.000000   0.000000
  285       19.460758     19.461332   0.000000   0.000000
  286       19.507607     19.506508   0.000000   0.000000
  287       19.544292     19.544459   0.000000   0.000000
  288       19.575020     19.573369   0.000000   0.000000
  289       19.594145     19.594240   0.000000   0.000000
  290       19.639316     19.639855   0.000000   0.000000
  291       19.695110     19.695719   0.000000   0.000000
  292       19.704237     19.703967   0.000000   0.000000
  293       19.808671     19.809719   0.000000   0.000000
  294       19.823713     19.831708   0.000000   0.000000
  295       19.874134     19.873983   0.000000   0.000000
  296       19.921655     19.921545   0.000000   0.000000
  297       19.947595     19.949964   0.000000   0.000000
  298       19.962262     19.961744   0.000000   0.000000
  299       20.001697     20.000366   0.000000   0.000000
  300       20.062886     20.076198   0.000000   0.000000
  301       20.120362     20.109150   0.000000   0.000000
  302       20.181060     20.179741   0.000000   0.000000
  303       20.225478     20.237506   0.000000   0.000000
  304       20.306011     20.303116   0.000000   0.000000
