       N       E                     dE             d eps       ncg     rms          rms(c)
DAV:   1     0.636811861023E+03    0.63681E+03   -0.10087E+05  1216   0.631E+02
DAV:   2    -0.340647218963E+03   -0.97746E+03   -0.91357E+03  1488   0.143E+02
DAV:   3    -0.390535877107E+03   -0.49889E+02   -0.47987E+02  1472   0.281E+01
DAV:   4    -0.391162370410E+03   -0.62649E+00   -0.62060E+00  1472   0.316E+00
DAV:   5    -0.391174849750E+03   -0.12479E-01   -0.12446E-01  1456   0.329E-01    0.636E+01
RMM:   6    -0.395686151099E+03   -0.45113E+01   -0.14694E+01  1216   0.393E+00    0.386E+01
RMM:   7    -0.403574248314E+03   -0.78881E+01   -0.64520E+00  1216   0.297E+00    0.178E+01
RMM:   8    -0.404315104668E+03   -0.74086E+00   -0.11795E+00  1216   0.117E+00    0.349E+00
RMM:   9    -0.404440267789E+03   -0.12516E+00   -0.40765E-01  1216   0.720E-01    0.214E+00
RMM:  10    -0.404505799031E+03   -0.65531E-01   -0.94361E-02  1216   0.308E-01    0.120E+00
RMM:  11    -0.404531287785E+03   -0.25489E-01   -0.25168E-02  1216   0.167E-01    0.598E-01
RMM:  12    -0.404539087314E+03   -0.77995E-02   -0.77527E-03  1216   0.976E-02    0.262E-01
RMM:  13    -0.404541085464E+03   -0.19981E-02   -0.28052E-03  1216   0.611E-02    0.145E-01
RMM:  14    -0.404541998309E+03   -0.91285E-03   -0.14328E-03  1216   0.446E-02    0.918E-02
RMM:  15    -0.404542449080E+03   -0.45077E-03   -0.74006E-04  1216   0.323E-02    0.573E-02
RMM:  16    -0.404542665392E+03   -0.21631E-03   -0.50427E-04  1216   0.270E-02    0.315E-02
RMM:  17    -0.404542723607E+03   -0.58215E-04   -0.18869E-04  1216   0.161E-02    0.150E-02
RMM:  18    -0.404542731782E+03   -0.81753E-05   -0.42324E-05   996   0.738E-03
    1 T=  2162. E= -.25194573E+03 F= -.40454273E+03 E0= -.40451270E+03  EK= 0.27671E+02 SP= 0.12E+03 SK= 0.84E-01 mag=      0.012
       N       E                     dE             d eps       ncg     rms          rms(c)
DAV:   1    -0.404949071233E+03   -0.40635E+00   -0.44398E+01  1280   0.101E+01    0.434E+00
RMM:   2    -0.404921501508E+03    0.27570E-01   -0.21588E+00  1216   0.224E+00    0.136E+00
RMM:   3    -0.404884661573E+03    0.36840E-01   -0.75846E-02  1216   0.307E-01    0.841E-01
RMM:   4    -0.404872393043E+03    0.12269E-01   -0.14884E-02  1216   0.113E-01    0.490E-01
RMM:   5    -0.404870269643E+03    0.21234E-02   -0.55304E-03  1216   0.735E-02    0.164E-01
RMM:   6    -0.404869919787E+03    0.34986E-03   -0.58919E-04  1216   0.211E-02    0.721E-02
RMM:   7    -0.404869860403E+03    0.59385E-04   -0.11220E-04  1164   0.941E-03    0.317E-02
RMM:   8    -0.404869843226E+03    0.17177E-04   -0.26095E-05   924   0.509E-03    0.112E-02
RMM:   9    -0.404869842357E+03    0.86942E-06   -0.35909E-06   752   0.232E-03
    2 T=  2229. E= -.25195826E+03 F= -.40486984E+03 E0= -.40484049E+03  EK= 0.28522E+02 SP= 0.12E+03 SK= 0.29E-01 mag=      0.002
       N       E                     dE             d eps       ncg     rms          rms(c)
DAV:   1    -0.404742361030E+03    0.12748E+00   -0.35228E+00  1280   0.425E+00    0.179E+00
RMM:   2    -0.404794282613E+03   -0.51922E-01   -0.74121E-01  1216   0.132E+00    0.803E-01
RMM:   3    -0.404789513775E+03    0.47688E-02   -0.10230E-02  1216   0.132E-01    0.608E-01
RMM:   4    -0.404788528622E+03    0.98515E-03   -0.23621E-03  1216   0.435E-02    0.396E-01
RMM:   5    -0.404787644437E+03    0.88418E-03   -0.17070E-03  1216   0.392E-02    0.946E-02
RMM:   6    -0.404787609089E+03    0.35348E-04   -0.12580E-04  1054   0.947E-03    0.386E-02
RMM:   7    -0.404787603683E+03    0.54066E-05   -0.18481E-05   859   0.427E-03
    3 T=  2242. E= -.25195123E+03 F= -.40478760E+03 E0= -.40475811E+03  EK= 0.28686E+02 SP= 0.12E+03 SK= 0.93E-03 mag=     -0.002
       N       E                     dE             d eps       ncg     rms          rms(c)
DAV:   1    -0.404397001830E+03    0.39061E+00   -0.89005E-01  1536   0.333E+00    0.104E+00
RMM:   2    -0.404425873477E+03   -0.28872E-01   -0.34716E-01  1216   0.886E-01    0.527E-01
RMM:   3    -0.404424276597E+03    0.15969E-02   -0.45560E-03  1216   0.773E-02    0.413E-01
RMM:   4    -0.404424019140E+03    0.25746E-03   -0.52933E-04  1216   0.192E-02    0.322E-01
RMM:   5    -0.404423678384E+03    0.34076E-03   -0.67982E-04  1216   0.255E-02    0.764E-02
RMM:   6    -0.404423663503E+03    0.14881E-04   -0.65930E-05  1041   0.707E-03    0.227E-02
RMM:   7    -0.404423659877E+03    0.36258E-05   -0.58539E-06   789   0.262E-03
    4 T=  2208. E= -.25193377E+03 F= -.40442366E+03 E0= -.40439520E+03  EK= 0.28255E+02 SP= 0.12E+03 SK= 0.11E-01 mag=     -0.001
       N       E                     dE             d eps       ncg     rms          rms(c)
DAV:   1    -0.404023088412E+03    0.40058E+00   -0.10359E+00  1616   0.332E+00    0.103E+00
RMM:   2    -0.404052144270E+03   -0.29056E-01   -0.34912E-01  1216   0.897E-01    0.511E-01
RMM:   3    -0.404050800159E+03    0.13441E-02   -0.41262E-03  1216   0.771E-02    0.401E-01
RMM:   4    -0.404050605699E+03    0.19446E-03   -0.46164E-04  1216   0.183E-02    0.308E-01
RMM:   5    -0.404050322643E+03    0.28306E-03   -0.51995E-04  1216   0.222E-02    0.798E-02
RMM:   6    -0.404050301378E+03    0.21265E-04   -0.67984E-05  1048   0.712E-03    0.204E-02
RMM:   7    -0.404050298578E+03    0.27997E-05   -0.50537E-06   773   0.250E-03
    5 T=  2152. E= -.25192035E+03 F= -.40405030E+03 E0= -.40402091E+03  EK= 0.27535E+02 SP= 0.12E+03 SK= 0.44E-01 mag=      0.002
       N       E                     dE             d eps       ncg     rms          rms(c)
DAV:   1    -0.403829518794E+03    0.22078E+00   -0.97517E-01  1616   0.334E+00    0.104E+00
RMM:   2    -0.403859342159E+03   -0.29823E-01   -0.36514E-01  1216   0.898E-01    0.495E-01
RMM:   3    -0.403857917306E+03    0.14249E-02   -0.59786E-03  1216   0.825E-02    0.383E-01
RMM:   4    -0.403857681310E+03    0.23600E-03   -0.58575E-04  1217   0.198E-02    0.291E-01
RMM:   5    -0.403857384589E+03    0.29672E-03   -0.56544E-04  1216   0.235E-02    0.675E-02
RMM:   6    -0.403857368572E+03    0.16017E-04   -0.57808E-05  1020   0.672E-03    0.185E-02
RMM:   7    -0.403857365554E+03    0.30176E-05   -0.47475E-06   786   0.242E-03
    6 T=  2093. E= -.25192309E+03 F= -.40385737E+03 E0= -.40382871E+03  EK= 0.26785E+02 SP= 0.13E+03 SK= 0.81E-01 mag=      0.002
       N       E                     dE             d eps       ncg     rms          rms(c)
DAV:   1    -0.403767630213E+03    0.89738E-01   -0.80258E-01  1600   0.338E+00    0.102E+00
RMM:   2    -0.403797144013E+03   -0.29514E-01   -0.34130E-01  1216   0.879E-01    0.469E-01
RMM:   3    -0.403795987933E+03    0.11561E-02   -0.42843E-03  1216   0.760E-02    0.366E-01
RMM:   4    -0.403795796149E+03    0.19178E-03   -0.45990E-04  1216   0.181E-02    0.277E-01
RMM:   5    -0.403795532626E+03    0.26352E-03   -0.48427E-04  1216   0.217E-02    0.674E-02
RMM:   6    -0.403795519996E+03    0.12630E-04   -0.45579E-05   988   0.616E-03    0.178E-02
RMM:   7    -0.403795518398E+03    0.15980E-05   -0.40752E-06   761   0.236E-03
    7 T=  2035. E= -.25193863E+03 F= -.40379552E+03 E0= -.40376988E+03  EK= 0.26035E+02 SP= 0.13E+03 SK= 0.11E+00 mag=      0.000
       N       E                     dE             d eps       ncg     rms          rms(c)
DAV:   1    -0.403604238663E+03    0.19128E+00   -0.75990E-01  1696   0.337E+00    0.959E-01
RMM:   2    -0.403630668346E+03   -0.26430E-01   -0.30774E-01  1216   0.840E-01    0.473E-01
RMM:   3    -0.403629483736E+03    0.11846E-02   -0.33981E-03  1216   0.694E-02    0.373E-01
RMM:   4    -0.403629311437E+03    0.17230E-03   -0.36501E-04  1216   0.164E-02    0.287E-01
RMM:   5    -0.403629076606E+03    0.23483E-03   -0.47892E-04  1216   0.213E-02    0.734E-02
RMM:   6    -0.403629063019E+03    0.13587E-04   -0.53575E-05  1030   0.639E-03    0.199E-02
RMM:   7    -0.403629062024E+03    0.99465E-06   -0.40552E-06   759   0.233E-03
    8 T=  1965. E= -.25194666E+03 F= -.40362906E+03 E0= -.40360348E+03  EK= 0.25145E+02 SP= 0.13E+03 SK= 0.12E+00 mag=     -0.001
       N       E                     dE             d eps       ncg     rms          rms(c)
DAV:   1    -0.403184545078E+03    0.44452E+00   -0.78416E-01  1600   0.332E+00    0.945E-01
RMM:   2    -0.403211209597E+03   -0.26665E-01   -0.30226E-01  1216   0.834E-01    0.508E-01
RMM:   3    -0.403210062536E+03    0.11471E-02   -0.30665E-03  1216   0.674E-02    0.402E-01
RMM:   4    -0.403209858126E+03    0.20441E-03   -0.42742E-04  1216   0.179E-02    0.292E-01
RMM:   5    -0.403209587829E+03    0.27030E-03   -0.51336E-04  1216   0.217E-02    0.751E-02
RMM:   6    -0.403209577077E+03    0.10752E-04   -0.48161E-05  1016   0.635E-03    0.188E-02
RMM:   7    -0.403209576071E+03    0.10055E-05   -0.42234E-06   763   0.240E-03
    9 T=  1880. E= -.25193595E+03 F= -.40320958E+03 E0= -.40318441E+03  EK= 0.24062E+02 SP= 0.13E+03 SK= 0.10E+00 mag=     -0.000
       N       E                     dE             d eps       ncg     rms          rms(c)
DAV:   1    -0.402653036242E+03    0.55654E+00   -0.72728E-01  1440   0.324E+00    0.988E-01
RMM:   2    -0.402677885792E+03   -0.24850E-01   -0.30493E-01  1216   0.830E-01    0.514E-01
RMM:   3    -0.402676271450E+03    0.16143E-02   -0.32871E-03  1216   0.692E-02    0.399E-01
RMM:   4    -0.402676031820E+03    0.23963E-03   -0.46894E-04  1216   0.188E-02    0.293E-01
RMM:   5    -0.402675734094E+03    0.29773E-03   -0.55154E-04  1216   0.224E-02    0.796E-02
RMM:   6    -0.402675712931E+03    0.21163E-04   -0.63173E-05  1046   0.684E-03    0.245E-02
RMM:   7    -0.402675710629E+03    0.23026E-05   -0.47397E-06   761   0.251E-03
   10 T=  1798. E= -.25191141E+03 F= -.40267571E+03 E0= -.40264907E+03  EK= 0.23007E+02 SP= 0.13E+03 SK= 0.60E-01 mag=      0.000
       N       E                     dE             d eps       ncg     rms          rms(c)
DAV:   1    -0.402330824084E+03    0.34489E+00   -0.79140E-01  1472   0.314E+00    0.918E-01
RMM:   2    -0.402355786009E+03   -0.24962E-01   -0.29048E-01  1216   0.797E-01    0.484E-01
RMM:   3    -0.402354586646E+03    0.11994E-02   -0.34777E-03  1216   0.672E-02    0.380E-01
RMM:   4    -0.402354366730E+03    0.21992E-03   -0.41769E-04  1216   0.175E-02    0.280E-01
RMM:   5    -0.402354100404E+03    0.26633E-03   -0.52391E-04  1216   0.219E-02    0.686E-02
RMM:   6    -0.402354088259E+03    0.12145E-04   -0.44768E-05   988   0.601E-03    0.183E-02
RMM:   7    -0.402354085986E+03    0.22734E-05   -0.40047E-06   764   0.233E-03
   11 T=  1746. E= -.25190057E+03 F= -.40235409E+03 E0= -.40232379E+03  EK= 0.22346E+02 SP= 0.13E+03 SK= 0.17E-01 mag=      0.000
       N       E                     dE             d eps       ncg     rms          rms(c)
DAV:   1    -0.402378467320E+03   -0.24379E-01   -0.79072E-01  1616   0.305E+00    0.902E-01
RMM:   2    -0.402399252421E+03   -0.20785E-01   -0.26558E-01  1216   0.769E-01    0.466E-01
RMM:   3    -0.402398073065E+03    0.11794E-02   -0.28289E-03  1216   0.654E-02    0.361E-01
RMM:   4    -0.402397857156E+03    0.21591E-03   -0.48266E-04  1216   0.195E-02    0.240E-01
RMM:   5    -0.402397622235E+03    0.23492E-03   -0.41145E-04  1216   0.193E-02    0.587E-02
RMM:   6    -0.402397608227E+03    0.14007E-04   -0.41063E-05   981   0.568E-03    0.152E-02
RMM:   7    -0.402397606226E+03    0.20015E-05   -0.38311E-06   746   0.231E-03
   12 T=  1739. E= -.25191120E+03 F= -.40239761E+03 E0= -.40236589E+03  EK= 0.22253E+02 SP= 0.13E+03 SK= 0.25E-04 mag=     -0.000
       N       E                     dE             d eps       ncg     rms          rms(c)
DAV:   1    -0.402656500911E+03   -0.25889E+00   -0.68999E-01  1568   0.308E+00    0.880E-01
RMM:   2    -0.402678778222E+03   -0.22277E-01   -0.26350E-01  1216   0.761E-01    0.450E-01
RMM:   3    -0.402677756557E+03    0.10217E-02   -0.32096E-03  1216   0.661E-02    0.348E-01
RMM:   4    -0.402677534201E+03    0.22236E-03   -0.51730E-04  1216   0.204E-02    0.220E-01
RMM:   5    -0.402677333759E+03    0.20044E-03   -0.37379E-04  1216   0.182E-02    0.555E-02
RMM:   6    -0.402677325486E+03    0.82733E-05   -0.32353E-05   932   0.513E-03
   13 T=  1768. E= -.25192427E+03 F= -.40267733E+03 E0= -.40264731E+03  EK= 0.22621E+02 SP= 0.13E+03 SK= 0.13E-01 mag=     -0.000
       N       E                     dE             d eps       ncg     rms          rms(c)
DAV:   1    -0.402979026221E+03   -0.30169E+00   -0.58348E-01  1648   0.316E+00    0.867E-01
RMM:   2    -0.403001372782E+03   -0.22347E-01   -0.26512E-01  1216   0.768E-01    0.449E-01
RMM:   3    -0.403000197830E+03    0.11750E-02   -0.31202E-03  1216   0.659E-02    0.349E-01
RMM:   4    -0.403000007020E+03    0.19081E-03   -0.39827E-04  1216   0.173E-02    0.257E-01
RMM:   5    -0.402999764795E+03    0.24223E-03   -0.46898E-04  1216   0.210E-02    0.648E-02
RMM:   6    -0.402999751275E+03    0.13520E-04   -0.47847E-05  1004   0.617E-03    0.181E-02
RMM:   7    -0.402999750017E+03    0.12587E-05   -0.40820E-06   756   0.237E-03
   14 T=  1817. E= -.25193266E+03 F= -.40299975E+03 E0= -.40297595E+03  EK= 0.23246E+02 SP= 0.13E+03 SK= 0.45E-01 mag=     -0.000
       N       E                     dE             d eps       ncg     rms          rms(c)
DAV:   1    -0.403226612674E+03   -0.22686E+00   -0.54214E-01  1648   0.325E+00    0.857E-01
RMM:   2    -0.403250670399E+03   -0.24058E-01   -0.27462E-01  1216   0.780E-01    0.436E-01
RMM:   3    -0.403249614545E+03    0.10559E-02   -0.29176E-03  1216   0.661E-02    0.341E-01
RMM:   4    -0.403249439626E+03    0.17492E-03   -0.35834E-04  1216   0.168E-02    0.252E-01
RMM:   5    -0.403249217850E+03    0.22178E-03   -0.42745E-04  1216   0.200E-02    0.636E-02
RMM:   6    -0.403249207793E+03    0.10057E-04   -0.39973E-05   977   0.574E-03    0.170E-02
RMM:   7    -0.403249206665E+03    0.11277E-05   -0.35864E-06   751   0.226E-03
   15 T=  1874. E= -.25193403E+03 F= -.40324921E+03 E0= -.40323187E+03  EK= 0.23977E+02 SP= 0.13E+03 SK= 0.80E-01 mag=      0.000
       N       E                     dE             d eps       ncg     rms          rms(c)
DAV:   1    -0.403393708338E+03   -0.14450E+00   -0.57068E-01  1664   0.332E+00    0.833E-01
RMM:   2    -0.403419103882E+03   -0.25396E-01   -0.27581E-01  1216   0.788E-01    0.428E-01
RMM:   3    -0.403418213233E+03    0.89065E-03   -0.27459E-03  1216   0.651E-02    0.338E-01
RMM:   4    -0.403418061871E+03    0.15136E-03   -0.33655E-04  1216   0.163E-02    0.245E-01
RMM:   5    -0.403417868553E+03    0.19332E-03   -0.35095E-04  1216   0.177E-02    0.716E-02
RMM:   6    -0.403417857382E+03    0.11172E-04   -0.41604E-05   975   0.576E-03    0.193E-02
RMM:   7    -0.403417856465E+03    0.91679E-06   -0.38151E-06   751   0.233E-03
   16 T=  1934. E= -.25193367E+03 F= -.40341786E+03 E0= -.40340155E+03  EK= 0.24753E+02 SP= 0.13E+03 SK= 0.10E+00 mag=      0.000
       N       E                     dE             d eps       ncg     rms          rms(c)
DAV:   1    -0.403505776063E+03   -0.87919E-01   -0.68830E-01  1648   0.339E+00    0.874E-01
RMM:   2    -0.403532087118E+03   -0.26311E-01   -0.28897E-01  1216   0.803E-01    0.431E-01
RMM:   3    -0.403531185971E+03    0.90115E-03   -0.34316E-03  1216   0.686E-02    0.339E-01
RMM:   4    -0.403531026530E+03    0.15944E-03   -0.39999E-04  1217   0.172E-02    0.245E-01
RMM:   5    -0.403530817805E+03    0.20873E-03   -0.37508E-04  1216   0.184E-02    0.693E-02
RMM:   6    -0.403530808304E+03    0.95011E-05   -0.40915E-05   968   0.581E-03
   17 T=  1995. E= -.25193813E+03 F= -.40353081E+03 E0= -.40350913E+03  EK= 0.25535E+02 SP= 0.13E+03 SK= 0.11E+00 mag=     -0.000
       N       E                     dE             d eps       ncg     rms          rms(c)
DAV:   1    -0.403527882322E+03    0.29355E-02   -0.81369E-01  1648   0.342E+00    0.915E-01
RMM:   2    -0.403554001242E+03   -0.26119E-01   -0.29943E-01  1216   0.814E-01    0.450E-01
RMM:   3    -0.403552980706E+03    0.10205E-02   -0.33583E-03  1216   0.696E-02    0.352E-01
RMM:   4    -0.403552781722E+03    0.19898E-03   -0.46457E-04  1216   0.193E-02    0.229E-01
RMM:   5    -0.403552603915E+03    0.17781E-03   -0.35268E-04  1216   0.175E-02    0.624E-02
RMM:   6    -0.403552591252E+03    0.12663E-04   -0.38390E-05   969   0.545E-03    0.166E-02
RMM:   7    -0.403552590165E+03    0.10878E-05   -0.32641E-06   757   0.216E-03
   18 T=  2049. E= -.25194904E+03 F= -.40355259E+03 E0= -.40352192E+03  EK= 0.26218E+02 SP= 0.13E+03 SK= 0.91E-01 mag=      0.000
       N       E                     dE             d eps       ncg     rms          rms(c)
DAV:   1    -0.403369996612E+03    0.18259E+00   -0.93318E-01  1696   0.344E+00    0.100E+00
RMM:   2    -0.403395023367E+03   -0.25027E-01   -0.31368E-01  1216   0.839E-01    0.475E-01
RMM:   3    -0.403393719650E+03    0.13037E-02   -0.36576E-03  1216   0.724E-02    0.366E-01
RMM:   4    -0.403393487778E+03    0.23187E-03   -0.53440E-04  1216   0.202E-02    0.252E-01
RMM:   5    -0.403393236537E+03    0.25124E-03   -0.47948E-04  1216   0.210E-02    0.610E-02
RMM:   6    -0.403393225239E+03    0.11297E-04   -0.46591E-05  1001   0.596E-03    0.168E-02
RMM:   7    -0.403393223723E+03    0.15163E-05   -0.39581E-06   752   0.228E-03
   19 T=  2083. E= -.25195389E+03 F= -.40339322E+03 E0= -.40335777E+03  EK= 0.26661E+02 SP= 0.12E+03 SK= 0.64E-01 mag=      0.000
       N       E                     dE             d eps       ncg     rms          rms(c)
DAV:   1    -0.403029196446E+03    0.36403E+00   -0.91698E-01  1680   0.342E+00    0.104E+00
RMM:   2    -0.403052677702E+03   -0.23481E-01   -0.32475E-01  1216   0.855E-01    0.512E-01
RMM:   3    -0.403050653187E+03    0.20245E-02   -0.39817E-03  1216   0.742E-02    0.396E-01
RMM:   4    -0.403050357263E+03    0.29592E-03   -0.45371E-04  1216   0.185E-02    0.306E-01
RMM:   5    -0.403050056867E+03    0.30040E-03   -0.59191E-04  1216   0.241E-02    0.769E-02
RMM:   6    -0.403050030204E+03    0.26663E-04   -0.84979E-05  1054   0.776E-03    0.210E-02
RMM:   7    -0.403050026689E+03    0.35150E-05   -0.55904E-06   778   0.258E-03
   20 T=  2095. E= -.25195207E+03 F= -.40305003E+03 E0= -.40301765E+03  EK= 0.26809E+02 SP= 0.12E+03 SK= 0.36E-01 mag=      0.000
       N       E                     dE             d eps       ncg     rms          rms(c)
DAV:   1    -0.402626278944E+03    0.42375E+00   -0.83911E-01  1584   0.336E+00    0.105E+00
RMM:   2    -0.402648245863E+03   -0.21967E-01   -0.33218E-01  1216   0.860E-01    0.539E-01
RMM:   3    -0.402646327083E+03    0.19188E-02   -0.44285E-03  1216   0.771E-02    0.404E-01
RMM:   4    -0.402645918462E+03    0.40862E-03   -0.93319E-04  1216   0.284E-02    0.227E-01
RMM:   5    -0.402645674437E+03    0.24403E-03   -0.47557E-04  1216   0.199E-02    0.638E-02
RMM:   6    -0.402645647045E+03    0.27392E-04   -0.53034E-05  1018   0.618E-03    0.211E-02
RMM:   7    -0.402645644697E+03    0.23482E-05   -0.51891E-06   766   0.253E-03
   21 T=  2092. E= -.25194071E+03 F= -.40264564E+03 E0= -.40261170E+03  EK= 0.26769E+02 SP= 0.12E+03 SK= 0.16E-01 mag=     -0.000
       N       E                     dE             d eps       ncg     rms          rms(c)
DAV:   1    -0.402387955924E+03    0.25769E+00   -0.85136E-01  1552   0.335E+00    0.991E-01
RMM:   2    -0.402414919145E+03   -0.26963E-01   -0.34118E-01  1216   0.874E-01    0.536E-01
RMM:   3    -0.402413229697E+03    0.16894E-02   -0.41193E-03  1216   0.753E-02    0.417E-01
RMM:   4    -0.402412968211E+03    0.26149E-03   -0.49944E-04  1216   0.189E-02    0.325E-01
RMM:   5    -0.402412606634E+03    0.36158E-03   -0.68239E-04  1216   0.260E-02    0.722E-02
RMM:   6    -0.402412586009E+03    0.20625E-04   -0.66380E-05  1042   0.711E-03    0.207E-02
RMM:   7    -0.402412580212E+03    0.57967E-05   -0.63500E-06   790   0.269E-03
   22 T=  2091. E= -.25193149E+03 F= -.40241258E+03 E0= -.40237693E+03  EK= 0.26761E+02 SP= 0.12E+03 SK= 0.46E-02 mag=      0.000
       N       E                     dE             d eps       ncg     rms          rms(c)
DAV:   1    -0.402506822949E+03   -0.94237E-01   -0.70073E-01  1584   0.337E+00    0.102E+00
RMM:   2    -0.402533015972E+03   -0.26193E-01   -0.34504E-01  1216   0.886E-01    0.524E-01
RMM:   3    -0.402531120819E+03    0.18952E-02   -0.40423E-03  1216   0.765E-02    0.404E-01
RMM:   4    -0.402530817702E+03    0.30312E-03   -0.54336E-04  1216   0.207E-02    0.298E-01
RMM:   5    -0.402530471002E+03    0.34670E-03   -0.64494E-04  1216   0.248E-02    0.747E-02
RMM:   6    -0.402530440904E+03    0.30099E-04   -0.75861E-05  1050   0.737E-03    0.239E-02
RMM:   7    -0.402530436490E+03    0.44139E-05   -0.56933E-06   779   0.262E-03
   23 T=  2106. E= -.25193762E+03 F= -.40253044E+03 E0= -.40249444E+03  EK= 0.26952E+02 SP= 0.12E+03 SK= 0.16E-04 mag=      0.000
       N       E                     dE             d eps       ncg     rms          rms(c)
DAV:   1    -0.402910211070E+03   -0.37977E+00   -0.63925E-01  1552   0.346E+00    0.989E-01
RMM:   2    -0.402942376759E+03   -0.32166E-01   -0.35569E-01  1216   0.897E-01    0.487E-01
RMM:   3    -0.402941308298E+03    0.10685E-02   -0.42935E-03  1216   0.757E-02    0.383E-01
RMM:   4    -0.402941104993E+03    0.20331E-03   -0.47199E-04  1216   0.188E-02    0.281E-01
RMM:   5    -0.402940840956E+03    0.26404E-03   -0.51783E-04  1216   0.219E-02    0.738E-02
RMM:   6    -0.402940825452E+03    0.15503E-04   -0.50811E-05  1019   0.626E-03    0.238E-02
RMM:   7    -0.402940823293E+03    0.21590E-05   -0.45993E-06   769   0.243E-03
   24 T=  2131. E= -.25195667E+03 F= -.40294082E+03 E0= -.40290361E+03  EK= 0.27268E+02 SP= 0.12E+03 SK= 0.52E-02 mag=      0.000
       N       E                     dE             d eps       ncg     rms          rms(c)
DAV:   1    -0.403314713321E+03   -0.37389E+00   -0.79829E-01  1536   0.356E+00    0.103E+00
RMM:   2    -0.403347684717E+03   -0.32971E-01   -0.36123E-01  1216   0.913E-01    0.477E-01
RMM:   3    -0.403346691394E+03    0.99332E-03   -0.34571E-03  1216   0.747E-02    0.377E-01
RMM:   4    -0.403346519021E+03    0.17237E-03   -0.38420E-04  1216   0.177E-02    0.275E-01
RMM:   5    -0.403346297065E+03    0.22196E-03   -0.43058E-04  1216   0.202E-02    0.729E-02
RMM:   6    -0.403346288926E+03    0.81392E-05   -0.40513E-05   963   0.585E-03
   25 T=  2140. E= -.25198345E+03 F= -.40334629E+03 E0= -.40330816E+03  EK= 0.27384E+02 SP= 0.12E+03 SK= 0.26E-01 mag=     -0.000
       N       E                     dE             d eps       ncg     rms          rms(c)
DAV:   1    -0.403298497679E+03    0.47799E-01   -0.88559E-01  1600   0.364E+00    0.106E+00
RMM:   2    -0.403330892462E+03   -0.32395E-01   -0.36375E-01  1216   0.911E-01    0.496E-01
RMM:   3    -0.403329691398E+03    0.12011E-02   -0.44420E-03  1216   0.768E-02    0.391E-01
RMM:   4    -0.403329508537E+03    0.18286E-03   -0.44162E-04  1216   0.175E-02    0.306E-01
RMM:   5    -0.403329252569E+03    0.25597E-03   -0.51609E-04  1216   0.224E-02    0.768E-02
RMM:   6    -0.403329240122E+03    0.12447E-04   -0.52678E-05  1010   0.646E-03    0.226E-02
RMM:   7    -0.403329238538E+03    0.15838E-05   -0.54962E-06   774   0.260E-03
   26 T=  2102. E= -.25200193E+03 F= -.40332924E+03 E0= -.40329155E+03  EK= 0.26894E+02 SP= 0.12E+03 SK= 0.59E-01 mag=     -0.001
       N       E                     dE             d eps       ncg     rms          rms(c)
DAV:   1    -0.402581374294E+03    0.74787E+00   -0.96078E-01  1600   0.365E+00    0.107E+00
RMM:   2    -0.402614944181E+03   -0.33570E-01   -0.36794E-01  1216   0.917E-01    0.518E-01
RMM:   3    -0.402613700232E+03    0.12439E-02   -0.39815E-03  1216   0.767E-02    0.410E-01
RMM:   4    -0.402613514318E+03    0.18591E-03   -0.43542E-04  1216   0.179E-02    0.317E-01
RMM:   5    -0.402613234446E+03    0.27987E-03   -0.54532E-04  1216   0.227E-02    0.830E-02
RMM:   6    -0.402613221168E+03    0.13278E-04   -0.58199E-05  1046   0.684E-03    0.228E-02
RMM:   7    -0.402613220615E+03    0.55233E-06   -0.49497E-06   769   0.250E-03
   27 T=  2001. E= -.25199190E+03 F= -.40261322E+03 E0= -.40258065E+03  EK= 0.25606E+02 SP= 0.12E+03 SK= 0.84E-01 mag=     -0.000
       N       E                     dE             d eps       ncg     rms          rms(c)
DAV:   1    -0.401318518699E+03    0.12947E+01   -0.92233E-01  1568   0.355E+00    0.106E+00
RMM:   2    -0.401349865649E+03   -0.31347E-01   -0.37153E-01  1216   0.914E-01    0.557E-01
RMM:   3    -0.401348402034E+03    0.14636E-02   -0.44724E-03  1216   0.779E-02    0.438E-01
RMM:   4    -0.401348146919E+03    0.25512E-03   -0.58161E-04  1216   0.209E-02    0.312E-01
RMM:   5    -0.401347823217E+03    0.32370E-03   -0.59111E-04  1216   0.231E-02    0.823E-02
RMM:   6    -0.401347805009E+03    0.18208E-04   -0.63486E-05  1054   0.709E-03    0.211E-02
RMM:   7    -0.401347803269E+03    0.17403E-05   -0.53040E-06   780   0.257E-03
   28 T=  1860. E= -.25195272E+03 F= -.40134780E+03 E0= -.40132006E+03  EK= 0.23807E+02 SP= 0.13E+03 SK= 0.73E-01 mag=      0.000
       N       E                     dE             d eps       ncg     rms          rms(c)
DAV:   1    -0.400100176865E+03    0.12476E+01   -0.88450E-01  1536   0.342E+00    0.109E+00
RMM:   2    -0.400131228011E+03   -0.31051E-01   -0.36567E-01  1216   0.916E-01    0.533E-01
RMM:   3    -0.400129812589E+03    0.14154E-02   -0.41119E-03  1216   0.775E-02    0.416E-01
RMM:   4    -0.400129551532E+03    0.26106E-03   -0.54523E-04  1216   0.206E-02    0.294E-01
RMM:   5    -0.400129231749E+03    0.31978E-03   -0.52745E-04  1216   0.222E-02    0.763E-02
RMM:   6    -0.400129215217E+03    0.16532E-04   -0.50846E-05  1035   0.657E-03    0.189E-02
RMM:   7    -0.400129212589E+03    0.26280E-05   -0.46662E-06   767   0.248E-03
   29 T=  1735. E= -.25191305E+03 F= -.40012921E+03 E0= -.40010167E+03  EK= 0.22207E+02 SP= 0.13E+03 SK= 0.30E-01 mag=      0.000
       N       E                     dE             d eps       ncg     rms          rms(c)
DAV:   1    -0.399523884502E+03    0.60533E+00   -0.76741E-01  1600   0.329E+00    0.101E+00
RMM:   2    -0.399552215164E+03   -0.28331E-01   -0.32933E-01  1216   0.866E-01    0.485E-01
RMM:   3    -0.399551125784E+03    0.10894E-02   -0.38588E-03  1216   0.736E-02    0.379E-01
RMM:   4    -0.399550928027E+03    0.19776E-03   -0.47946E-04  1216   0.191E-02    0.270E-01
RMM:   5    -0.399550656347E+03    0.27168E-03   -0.45885E-04  1216   0.207E-02    0.707E-02
RMM:   6    -0.399550639096E+03    0.17251E-04   -0.46778E-05  1002   0.611E-03    0.202E-02
RMM:   7    -0.399550635831E+03    0.32645E-05   -0.45785E-06   771   0.241E-03
   30 T=  1676. E= -.25191171E+03 F= -.39955064E+03 E0= -.39952464E+03  EK= 0.21450E+02 SP= 0.13E+03 SK= 0.68E-03 mag=      0.000
       N       E                     dE             d eps       ncg     rms          rms(c)
DAV:   1    -0.399649952767E+03   -0.99314E-01   -0.75339E-01  1568   0.323E+00    0.946E-01
RMM:   2    -0.399676366772E+03   -0.26414E-01   -0.30451E-01  1216   0.829E-01    0.460E-01
RMM:   3    -0.399675147308E+03    0.12195E-02   -0.36282E-03  1216   0.713E-02    0.362E-01
RMM:   4    -0.399674957883E+03    0.18943E-03   -0.37109E-04  1216   0.167E-02    0.282E-01
RMM:   5    -0.399674694390E+03    0.26349E-03   -0.49866E-04  1216   0.223E-02    0.648E-02
RMM:   6    -0.399674683264E+03    0.11125E-04   -0.43563E-05   982   0.610E-03    0.175E-02
RMM:   7    -0.399674681141E+03    0.21229E-05   -0.40486E-06   766   0.239E-03
   31 T=  1691. E= -.25193403E+03 F= -.39967468E+03 E0= -.39964867E+03  EK= 0.21646E+02 SP= 0.13E+03 SK= 0.17E-01 mag=     -0.000
       N       E                     dE             d eps       ncg     rms          rms(c)
DAV:   1    -0.400157740933E+03   -0.48306E+00   -0.76528E-01  1568   0.328E+00    0.980E-01
RMM:   2    -0.400183814262E+03   -0.26073E-01   -0.30566E-01  1216   0.839E-01    0.472E-01
RMM:   3    -0.400182582037E+03    0.12322E-02   -0.32690E-03  1216   0.706E-02    0.368E-01
RMM:   4    -0.400182381559E+03    0.20048E-03   -0.40364E-04  1216   0.177E-02    0.275E-01
RMM:   5    -0.400182126129E+03    0.25543E-03   -0.48097E-04  1216   0.216E-02    0.723E-02
RMM:   6    -0.400182110455E+03    0.15673E-04   -0.52827E-05  1021   0.652E-03    0.212E-02
RMM:   7    -0.400182108219E+03    0.22361E-05   -0.43978E-06   761   0.244E-03
   32 T=  1758. E= -.25195666E+03 F= -.40018211E+03 E0= -.40015233E+03  EK= 0.22491E+02 SP= 0.13E+03 SK= 0.70E-01 mag=      0.000
       N       E                     dE             d eps       ncg     rms          rms(c)
DAV:   1    -0.400685785534E+03   -0.50368E+00   -0.73554E-01  1536   0.338E+00    0.100E+00
RMM:   2    -0.400710236539E+03   -0.24451E-01   -0.30724E-01  1216   0.839E-01    0.483E-01
RMM:   3    -0.400708609452E+03    0.16271E-02   -0.33997E-03  1216   0.710E-02    0.374E-01
RMM:   4    -0.400708358879E+03    0.25057E-03   -0.38995E-04  1216   0.175E-02    0.289E-01
RMM:   5    -0.400708082992E+03    0.27589E-03   -0.55804E-04  1216   0.235E-02    0.728E-02
RMM:   6    -0.400708065199E+03    0.17793E-04   -0.65844E-05  1045   0.702E-03    0.214E-02
RMM:   7    -0.400708062821E+03    0.23777E-05   -0.50612E-06   763   0.253E-03
   33 T=  1843. E= -.25197779E+03 F= -.40070806E+03 E0= -.40067736E+03  EK= 0.23588E+02 SP= 0.13E+03 SK= 0.13E+00 mag=     -0.000
       N       E                     dE             d eps       ncg     rms          rms(c)
DAV:   1    -0.400927456268E+03   -0.21939E+00   -0.77135E-01  1552   0.350E+00    0.100E+00
RMM:   2    -0.400954327580E+03   -0.26871E-01   -0.31979E-01  1216   0.857E-01    0.489E-01
RMM:   3    -0.400953166456E+03    0.11611E-02   -0.35943E-03  1216   0.703E-02    0.380E-01
RMM:   4    -0.400952956287E+03    0.21017E-03   -0.52348E-04  1216   0.202E-02    0.253E-01
RMM:   5    -0.400952740044E+03    0.21624E-03   -0.42723E-04  1216   0.195E-02    0.694E-02
RMM:   6    -0.400952724108E+03    0.15936E-04   -0.47806E-05  1001   0.593E-03    0.215E-02
RMM:   7    -0.400952722796E+03    0.13118E-05   -0.43074E-06   765   0.236E-03
   34 T=  1921. E= -.25198590E+03 F= -.40095272E+03 E0= -.40092018E+03  EK= 0.24579E+02 SP= 0.12E+03 SK= 0.16E+00 mag=      0.000
       N       E                     dE             d eps       ncg     rms          rms(c)
DAV:   1    -0.400808800025E+03    0.14392E+00   -0.97852E-01  1664   0.358E+00    0.105E+00
RMM:   2    -0.400837877227E+03   -0.29077E-01   -0.34045E-01  1216   0.892E-01    0.510E-01
RMM:   3    -0.400836420646E+03    0.14566E-02   -0.34951E-03  1216   0.721E-02    0.398E-01
RMM:   4    -0.400836199511E+03    0.22113E-03   -0.43466E-04  1216   0.181E-02    0.299E-01
RMM:   5    -0.400835917797E+03    0.28171E-03   -0.55463E-04  1216   0.231E-02    0.739E-02
RMM:   6    -0.400835899609E+03    0.18187E-04   -0.60969E-05  1043   0.673E-03    0.236E-02
RMM:   7    -0.400835897442E+03    0.21671E-05   -0.46951E-06   764   0.246E-03
   35 T=  1978. E= -.25197467E+03 F= -.40083590E+03 E0= -.40080113E+03  EK= 0.25313E+02 SP= 0.12E+03 SK= 0.17E+00 mag=     -0.000
       N       E                     dE             d eps       ncg     rms          rms(c)
DAV:   1    -0.400525486382E+03    0.31041E+00   -0.11572E+00  1504   0.361E+00    0.114E+00
RMM:   2    -0.400553452116E+03   -0.27966E-01   -0.37167E-01  1216   0.919E-01    0.539E-01
RMM:   3    -0.400551478513E+03    0.19736E-02   -0.48322E-03  1216   0.797E-02    0.412E-01
RMM:   4    -0.400551144097E+03    0.33442E-03   -0.69461E-04  1216   0.228E-02    0.296E-01
RMM:   5    -0.400550790888E+03    0.35321E-03   -0.69818E-04  1216   0.257E-02    0.745E-02
RMM:   6    -0.400550763127E+03    0.27761E-04   -0.72153E-05  1040   0.722E-03    0.253E-02
RMM:   7    -0.400550759215E+03    0.39122E-05   -0.65522E-06   789   0.279E-03
   36 T=  2023. E= -.25196386E+03 F= -.40055076E+03 E0= -.40052197E+03  EK= 0.25893E+02 SP= 0.12E+03 SK= 0.16E+00 mag=     -0.000
       N       E                     dE             d eps       ncg     rms          rms(c)
DAV:   1    -0.400300607542E+03    0.25016E+00   -0.13033E+00  1552   0.363E+00    0.120E+00
RMM:   2    -0.400326822424E+03   -0.26215E-01   -0.39576E-01  1216   0.943E-01    0.564E-01
RMM:   3    -0.400324224771E+03    0.25977E-02   -0.52666E-03  1216   0.841E-02    0.429E-01
RMM:   4    -0.400323809175E+03    0.41560E-03   -0.70481E-04  1216   0.237E-02    0.307E-01
RMM:   5    -0.400323432217E+03    0.37696E-03   -0.77601E-04  1216   0.277E-02    0.685E-02
RMM:   6    -0.400323402542E+03    0.29675E-04   -0.74346E-05  1043   0.746E-03    0.208E-02
RMM:   7    -0.400323399314E+03    0.32278E-05   -0.63828E-06   779   0.280E-03
   37 T=  2069. E= -.25196568E+03 F= -.40032340E+03 E0= -.40029930E+03  EK= 0.26478E+02 SP= 0.12E+03 SK= 0.13E+00 mag=      0.000
       N       E                     dE             d eps       ncg     rms          rms(c)
DAV:   1    -0.400179145749E+03    0.14426E+00   -0.13397E+00  1520   0.365E+00    0.120E+00
RMM:   2    -0.400210168520E+03   -0.31023E-01   -0.40019E-01  1216   0.959E-01    0.573E-01
RMM:   3    -0.400208187852E+03    0.19807E-02   -0.50532E-03  1216   0.819E-02    0.439E-01
RMM:   4    -0.400207826251E+03    0.36160E-03   -0.70156E-04  1216   0.227E-02    0.322E-01
RMM:   5    -0.400207401402E+03    0.42485E-03   -0.79007E-04  1216   0.283E-02    0.719E-02
RMM:   6    -0.400207378012E+03    0.23391E-04   -0.71980E-05  1046   0.754E-03    0.226E-02
RMM:   7    -0.400207373945E+03    0.40670E-05   -0.66999E-06   786   0.286E-03
   38 T=  2115. E= -.25198466E+03 F= -.40020737E+03 E0= -.40018109E+03  EK= 0.27064E+02 SP= 0.12E+03 SK= 0.86E-01 mag=      0.000
       N       E                     dE             d eps       ncg     rms          rms(c)
DAV:   1    -0.400004419880E+03    0.20296E+00   -0.10767E+00  1584   0.364E+00    0.118E+00
RMM:   2    -0.400035862222E+03   -0.31442E-01   -0.40540E-01  1216   0.966E-01    0.582E-01
RMM:   3    -0.400034108618E+03    0.17536E-02   -0.49783E-03  1216   0.825E-02    0.450E-01
RMM:   4    -0.400033812698E+03    0.29592E-03   -0.66468E-04  1216   0.224E-02    0.325E-01
RMM:   5    -0.400033437840E+03    0.37486E-03   -0.68699E-04  1216   0.261E-02    0.728E-02
RMM:   6    -0.400033422317E+03    0.15523E-04   -0.61046E-05  1046   0.717E-03    0.179E-02
RMM:   7    -0.400033419901E+03    0.24163E-05   -0.60507E-06   788   0.273E-03
   39 T=  2144. E= -.25200266E+03 F= -.40003342E+03 E0= -.40000351E+03  EK= 0.27438E+02 SP= 0.12E+03 SK= 0.43E-01 mag=      0.000
       N       E                     dE             d eps       ncg     rms          rms(c)
DAV:   1    -0.399607847881E+03    0.42557E+00   -0.99417E-01  1568   0.364E+00    0.114E+00
RMM:   2    -0.399643133506E+03   -0.35286E-01   -0.41377E-01  1216   0.981E-01    0.601E-01
RMM:   3    -0.399641746449E+03    0.13871E-02   -0.45917E-03  1216   0.820E-02    0.475E-01
RMM:   4    -0.399641526555E+03    0.21989E-03   -0.58391E-04  1216   0.212E-02    0.345E-01
RMM:   5    -0.399641171391E+03    0.35516E-03   -0.63474E-04  1216   0.244E-02    0.823E-02
RMM:   6    -0.399641153856E+03    0.17535E-04   -0.60762E-05  1052   0.707E-03    0.201E-02
RMM:   7    -0.399641151714E+03    0.21416E-05   -0.54347E-06   776   0.258E-03
   40 T=  2143. E= -.25199371E+03 F= -.39964115E+03 E0= -.39961251E+03  EK= 0.27419E+02 SP= 0.12E+03 SK= 0.13E-01 mag=     -0.000
       N       E                     dE             d eps       ncg     rms          rms(c)
DAV:   1    -0.399153087108E+03    0.48807E+00   -0.10035E+00  1552   0.362E+00    0.115E+00
RMM:   2    -0.399190267570E+03   -0.37180E-01   -0.42724E-01  1216   0.990E-01    0.587E-01
RMM:   3    -0.399188648663E+03    0.16189E-02   -0.50934E-03  1216   0.849E-02    0.464E-01
RMM:   4    -0.399188418873E+03    0.22979E-03   -0.53785E-04  1216   0.202E-02    0.358E-01
RMM:   5    -0.399188053599E+03    0.36527E-03   -0.68263E-04  1216   0.257E-02    0.837E-02
RMM:   6    -0.399188028165E+03    0.25433E-04   -0.74459E-05  1054   0.750E-03    0.238E-02
RMM:   7    -0.399188024325E+03    0.38405E-05   -0.60128E-06   784   0.271E-03
   41 T=  2121. E= -.25197115E+03 F= -.39918802E+03 E0= -.39916410E+03  EK= 0.27147E+02 SP= 0.12E+03 SK= 0.77E-03 mag=     -0.000
       N       E                     dE             d eps       ncg     rms          rms(c)
DAV:   1    -0.398946809984E+03    0.24122E+00   -0.10494E+00  1472   0.359E+00    0.114E+00
RMM:   2    -0.398981367149E+03   -0.34557E-01   -0.41038E-01  1216   0.968E-01    0.549E-01
RMM:   3    -0.398979291683E+03    0.20755E-02   -0.47288E-03  1216   0.831E-02    0.430E-01
RMM:   4    -0.398979022087E+03    0.26960E-03   -0.45475E-04  1216   0.191E-02    0.340E-01
RMM:   5    -0.398978679035E+03    0.34305E-03   -0.65932E-04  1216   0.256E-02    0.849E-02
RMM:   6    -0.398978644461E+03    0.34574E-04   -0.87394E-05  1054   0.798E-03    0.250E-02
RMM:   7    -0.398978640906E+03    0.35549E-05   -0.62712E-06   773   0.282E-03
   42 T=  2104. E= -.25196475E+03 F= -.39897864E+03 E0= -.39894825E+03  EK= 0.26925E+02 SP= 0.12E+03 SK= 0.21E-02 mag=      0.000
       N       E                     dE             d eps       ncg     rms          rms(c)
DAV:   1    -0.399057537194E+03   -0.78893E-01   -0.10360E+00  1504   0.357E+00    0.110E+00
RMM:   2    -0.399089515051E+03   -0.31978E-01   -0.39431E-01  1216   0.927E-01    0.533E-01
RMM:   3    -0.399087461825E+03    0.20532E-02   -0.63143E-03  1216   0.842E-02    0.416E-01
RMM:   4    -0.399087126470E+03    0.33536E-03   -0.60623E-04  1216   0.202E-02    0.334E-01
RMM:   5    -0.399086775913E+03    0.35056E-03   -0.72299E-04  1216   0.268E-02    0.849E-02
RMM:   6    -0.399086747849E+03    0.28063E-04   -0.94982E-05  1060   0.832E-03    0.251E-02
RMM:   7    -0.399086744823E+03    0.30262E-05   -0.67036E-06   807   0.283E-03
   43 T=  2098. E= -.25197232E+03 F= -.39908674E+03 E0= -.39904643E+03  EK= 0.26850E+02 SP= 0.12E+03 SK= 0.13E-01 mag=      0.000
       N       E                     dE             d eps       ncg     rms          rms(c)
DAV:   1    -0.399314643119E+03   -0.22790E+00   -0.10624E+00  1568   0.355E+00    0.113E+00
RMM:   2    -0.399340362747E+03   -0.25720E-01   -0.39723E-01  1216   0.943E-01    0.577E-01
RMM:   3    -0.399337766150E+03    0.25966E-02   -0.57402E-03  1216   0.878E-02    0.432E-01
RMM:   4    -0.399337307993E+03    0.45816E-03   -0.89468E-04  1216   0.268E-02    0.303E-01
RMM:   5    -0.399336881065E+03    0.42693E-03   -0.79268E-04  1216   0.281E-02    0.680E-02
RMM:   6    -0.399336862030E+03    0.19035E-04   -0.73288E-05  1052   0.758E-03    0.217E-02
RMM:   7    -0.399336858899E+03    0.31318E-05   -0.68313E-06   802   0.280E-03
   44 T=  2091. E= -.25198626E+03 F= -.39933686E+03 E0= -.39930955E+03  EK= 0.26764E+02 SP= 0.12E+03 SK= 0.32E-01 mag=      0.000
       N       E                     dE             d eps       ncg     rms          rms(c)
DAV:   1    -0.399521826583E+03   -0.18496E+00   -0.83936E-01  1568   0.356E+00    0.110E+00
RMM:   2    -0.399551195282E+03   -0.29369E-01   -0.39126E-01  1216   0.943E-01    0.562E-01
RMM:   3    -0.399549005332E+03    0.21899E-02   -0.56448E-03  1216   0.850E-02    0.427E-01
RMM:   4    -0.399548631927E+03    0.37341E-03   -0.83090E-04  1216   0.249E-02    0.308E-01
RMM:   5    -0.399548205353E+03    0.42657E-03   -0.78117E-04  1216   0.273E-02    0.794E-02
RMM:   6    -0.399548177219E+03    0.28134E-04   -0.81858E-05  1054   0.789E-03    0.267E-02
RMM:   7    -0.399548173699E+03    0.35198E-05   -0.80437E-06   801   0.309E-03
   45 T=  2074. E= -.25197002E+03 F= -.39954817E+03 E0= -.39952425E+03  EK= 0.26535E+02 SP= 0.12E+03 SK= 0.56E-01 mag=     -0.000
       N       E                     dE             d eps       ncg     rms          rms(c)
DAV:   1    -0.399828375508E+03   -0.28020E+00   -0.81509E-01  1536   0.356E+00    0.106E+00
RMM:   2    -0.399860962106E+03   -0.32587E-01   -0.39727E-01  1216   0.947E-01    0.539E-01
RMM:   3    -0.399859330594E+03    0.16315E-02   -0.42959E-03  1216   0.810E-02    0.416E-01
RMM:   4    -0.399859010832E+03    0.31976E-03   -0.64419E-04  1216   0.232E-02    0.283E-01
RMM:   5    -0.399858675177E+03    0.33565E-03   -0.60329E-04  1216   0.240E-02    0.676E-02
RMM:   6    -0.399858654668E+03    0.20509E-04   -0.60393E-05  1033   0.681E-03    0.209E-02
RMM:   7    -0.399858651514E+03    0.31547E-05   -0.56178E-06   766   0.263E-03
   46 T=  2055. E= -.25194954E+03 F= -.39985865E+03 E0= -.39982848E+03  EK= 0.26298E+02 SP= 0.12E+03 SK= 0.80E-01 mag=     -0.000
       N       E                     dE             d eps       ncg     rms          rms(c)
DAV:   1    -0.400420333543E+03   -0.56168E+00   -0.99024E-01  1632   0.349E+00    0.101E+00
RMM:   2    -0.400453594471E+03   -0.33261E-01   -0.37973E-01  1216   0.921E-01    0.475E-01
RMM:   3    -0.400452557468E+03    0.10370E-02   -0.51986E-03  1216   0.813E-02    0.371E-01
RMM:   4    -0.400452376405E+03    0.18106E-03   -0.54447E-04  1217   0.206E-02    0.257E-01
RMM:   5    -0.400452173864E+03    0.20254E-03   -0.42399E-04  1216   0.195E-02    0.712E-02
RMM:   6    -0.400452145227E+03    0.28638E-04   -0.60495E-05  1033   0.651E-03    0.211E-02
RMM:   7    -0.400452142765E+03    0.24615E-05   -0.48055E-06   774   0.250E-03
   47 T=  2050. E= -.25195189E+03 F= -.40045214E+03 E0= -.40041393E+03  EK= 0.26232E+02 SP= 0.12E+03 SK= 0.10E+00 mag=     -0.000
       N       E                     dE             d eps       ncg     rms          rms(c)
DAV:   1    -0.401156038663E+03   -0.70389E+00   -0.11292E+00  1600   0.349E+00    0.109E+00
RMM:   2    -0.401185636678E+03   -0.29598E-01   -0.37689E-01  1216   0.917E-01    0.483E-01
RMM:   3    -0.401183847953E+03    0.17887E-02   -0.58301E-03  1216   0.840E-02    0.370E-01
RMM:   4    -0.401183549391E+03    0.29856E-03   -0.60486E-04  1216   0.209E-02    0.283E-01
RMM:   5    -0.401183262000E+03    0.28739E-03   -0.55713E-04  1216   0.239E-02    0.705E-02
RMM:   6    -0.401183237190E+03    0.24810E-04   -0.71836E-05  1044   0.729E-03    0.205E-02
RMM:   7    -0.401183234645E+03    0.25451E-05   -0.53948E-06   786   0.260E-03
   48 T=  2047. E= -.25197611E+03 F= -.40118323E+03 E0= -.40114540E+03  EK= 0.26195E+02 SP= 0.12E+03 SK= 0.13E+00 mag=     -0.000
       N       E                     dE             d eps       ncg     rms          rms(c)
DAV:   1    -0.401612658694E+03   -0.42942E+00   -0.11527E+00  1616   0.351E+00    0.114E+00
RMM:   2    -0.401637475567E+03   -0.24817E-01   -0.36887E-01  1216   0.908E-01    0.524E-01
RMM:   3    -0.401635274357E+03    0.22012E-02   -0.54653E-03  1216   0.828E-02    0.397E-01
RMM:   4    -0.401634915703E+03    0.35865E-03   -0.67846E-04  1216   0.227E-02    0.291E-01
RMM:   5    -0.401634580195E+03    0.33551E-03   -0.67160E-04  1216   0.257E-02    0.740E-02
RMM:   6    -0.401634545751E+03    0.34443E-04   -0.88571E-05  1052   0.798E-03    0.216E-02
RMM:   7    -0.401634543104E+03    0.26474E-05   -0.64954E-06   791   0.282E-03
   49 T=  2017. E= -.25198896E+03 F= -.40163454E+03 E0= -.40159771E+03  EK= 0.25814E+02 SP= 0.12E+03 SK= 0.16E+00 mag=     -0.001
       N       E                     dE             d eps       ncg     rms          rms(c)
DAV:   1    -0.401565903723E+03    0.68642E-01   -0.10737E+00  1616   0.350E+00    0.113E+00
RMM:   2    -0.401591099039E+03   -0.25195E-01   -0.36264E-01  1216   0.904E-01    0.552E-01
RMM:   3    -0.401588709742E+03    0.23893E-02   -0.51042E-03  1216   0.808E-02    0.426E-01
RMM:   4    -0.401588349886E+03    0.35986E-03   -0.59733E-04  1216   0.208E-02    0.329E-01
RMM:   5    -0.401587987688E+03    0.36220E-03   -0.69705E-04  1216   0.265E-02    0.812E-02
RMM:   6    -0.401587955376E+03    0.32312E-04   -0.99069E-05  1054   0.849E-03    0.213E-02
RMM:   7    -0.401587951657E+03    0.37189E-05   -0.68770E-06   795   0.290E-03
   50 T=  1950. E= -.25196280E+03 F= -.40158795E+03 E0= -.40155142E+03  EK= 0.24951E+02 SP= 0.12E+03 SK= 0.16E+00 mag=     -0.001
       N       E                     dE             d eps       ncg     rms          rms(c)
DAV:   1    -0.401346768197E+03    0.24119E+00   -0.87453E-01  1488   0.344E+00    0.109E+00
RMM:   2    -0.401374948643E+03   -0.28180E-01   -0.36162E-01  1216   0.903E-01    0.565E-01
RMM:   3    -0.401372723298E+03    0.22253E-02   -0.45626E-03  1216   0.780E-02    0.439E-01
RMM:   4    -0.401372356703E+03    0.36659E-03   -0.54452E-04  1216   0.202E-02    0.342E-01
RMM:   5    -0.401371913515E+03    0.44319E-03   -0.85255E-04  1216   0.292E-02    0.751E-02
RMM:   6    -0.401371886996E+03    0.26519E-04   -0.78859E-05  1054   0.775E-03    0.237E-02
RMM:   7    -0.401371881940E+03    0.50566E-05   -0.64729E-06   791   0.280E-03
   51 T=  1875. E= -.25191592E+03 F= -.40137188E+03 E0= -.40134071E+03  EK= 0.23999E+02 SP= 0.13E+03 SK= 0.14E+00 mag=     -0.000
       N       E                     dE             d eps       ncg     rms          rms(c)
DAV:   1    -0.401587031507E+03   -0.21514E+00   -0.76935E-01  1520   0.333E+00    0.103E+00
RMM:   2    -0.401613514359E+03   -0.26483E-01   -0.33902E-01  1216   0.882E-01    0.520E-01
RMM:   3    -0.401611869231E+03    0.16451E-02   -0.37851E-03  1216   0.738E-02    0.400E-01
RMM:   4    -0.401611558999E+03    0.31023E-03   -0.59059E-04  1216   0.215E-02    0.281E-01
RMM:   5    -0.401611216245E+03    0.34275E-03   -0.61664E-04  1216   0.241E-02    0.690E-02
RMM:   6    -0.401611191711E+03    0.24535E-04   -0.63050E-05  1039   0.688E-03    0.213E-02
RMM:   7    -0.401611187647E+03    0.40636E-05   -0.50061E-06   773   0.254E-03
   52 T=  1845. E= -.25189273E+03 F= -.40161119E+03 E0= -.40158411E+03  EK= 0.23604E+02 SP= 0.13E+03 SK= 0.92E-01 mag=      0.000
       N       E                     dE             d eps       ncg     rms          rms(c)
DAV:   1    -0.402566431906E+03   -0.95524E+00   -0.71600E-01  1600   0.327E+00    0.937E-01
RMM:   2    -0.402593011844E+03   -0.26580E-01   -0.30150E-01  1216   0.842E-01    0.445E-01
RMM:   3    -0.402591983677E+03    0.10282E-02   -0.29680E-03  1216   0.678E-02    0.346E-01
RMM:   4    -0.402591767226E+03    0.21645E-03   -0.45795E-04  1216   0.193E-02    0.230E-01
RMM:   5    -0.402591543457E+03    0.22377E-03   -0.38975E-04  1216   0.189E-02    0.608E-02
RMM:   6    -0.402591533636E+03    0.98208E-05   -0.32834E-05   943   0.544E-03
   53 T=  1878. E= -.25191289E+03 F= -.40259153E+03 E0= -.40256124E+03  EK= 0.24036E+02 SP= 0.13E+03 SK= 0.56E-01 mag=      0.001
       N       E                     dE             d eps       ncg     rms          rms(c)
DAV:   1    -0.403928543108E+03   -0.13370E+01   -0.79753E-01  1552   0.329E+00    0.936E-01
RMM:   2    -0.403953773000E+03   -0.25230E-01   -0.29245E-01  1216   0.827E-01    0.431E-01
RMM:   3    -0.403952801465E+03    0.97154E-03   -0.31445E-03  1216   0.678E-02    0.334E-01
RMM:   4    -0.403952587746E+03    0.21372E-03   -0.46970E-04  1216   0.199E-02    0.212E-01
RMM:   5    -0.403952421115E+03    0.16663E-03   -0.33861E-04  1216   0.175E-02    0.581E-02
RMM:   6    -0.403952410695E+03    0.10420E-04   -0.35180E-05   962   0.527E-03    0.182E-02
RMM:   7    -0.403952410093E+03    0.60198E-06   -0.37947E-06   749   0.228E-03
   54 T=  1947. E= -.25195539E+03 F= -.40395241E+03 E0= -.40391782E+03  EK= 0.24911E+02 SP= 0.13E+03 SK= 0.41E-01 mag=      0.000
       N       E                     dE             d eps       ncg     rms          rms(c)
DAV:   1    -0.404979472393E+03   -0.10271E+01   -0.86167E-01  1520   0.332E+00    0.949E-01
RMM:   2    -0.405005933339E+03   -0.26461E-01   -0.29847E-01  1216   0.833E-01    0.442E-01
RMM:   3    -0.405004950079E+03    0.98326E-03   -0.31381E-03  1216   0.679E-02    0.345E-01
RMM:   4    -0.405004742162E+03    0.20792E-03   -0.46271E-04  1216   0.195E-02    0.226E-01
RMM:   5    -0.405004558156E+03    0.18401E-03   -0.36430E-04  1216   0.181E-02    0.657E-02
RMM:   6    -0.405004549061E+03    0.90957E-05   -0.39600E-05   974   0.556E-03
   55 T=  1994. E= -.25198088E+03 F= -.40500455E+03 E0= -.40496663E+03  EK= 0.25512E+02 SP= 0.13E+03 SK= 0.42E-01 mag=     -0.000
       N       E                     dE             d eps       ncg     rms          rms(c)
DAV:   1    -0.405281908985E+03   -0.27735E+00   -0.81606E-01  1616   0.332E+00    0.927E-01
RMM:   2    -0.405307628093E+03   -0.25719E-01   -0.30151E-01  1216   0.835E-01    0.484E-01
RMM:   3    -0.405306495081E+03    0.11330E-02   -0.31107E-03  1216   0.675E-02    0.379E-01
RMM:   4    -0.405306313711E+03    0.18137E-03   -0.47951E-04  1216   0.190E-02    0.264E-01
RMM:   5    -0.405306064500E+03    0.24921E-03   -0.45502E-04  1216   0.200E-02    0.728E-02
RMM:   6    -0.405306053474E+03    0.11026E-04   -0.49845E-05  1023   0.620E-03    0.199E-02
RMM:   7    -0.405306052917E+03    0.55760E-06   -0.42504E-06   745   0.238E-03
   56 T=  1984. E= -.25196725E+03 F= -.40530605E+03 E0= -.40526856E+03  EK= 0.25383E+02 SP= 0.13E+03 SK= 0.47E-01 mag=     -0.001
       N       E                     dE             d eps       ncg     rms          rms(c)
DAV:   1    -0.404964734175E+03    0.34132E+00   -0.76757E-01  1552   0.327E+00    0.928E-01
RMM:   2    -0.404990526421E+03   -0.25792E-01   -0.30075E-01  1216   0.833E-01    0.488E-01
RMM:   3    -0.404989239186E+03    0.12872E-02   -0.28891E-03  1216   0.674E-02    0.384E-01
RMM:   4    -0.404989037653E+03    0.20153E-03   -0.41513E-04  1216   0.181E-02    0.276E-01
RMM:   5    -0.404988777665E+03    0.25999E-03   -0.47735E-04  1216   0.207E-02    0.758E-02
RMM:   6    -0.404988757658E+03    0.20007E-04   -0.56733E-05  1036   0.654E-03    0.213E-02
RMM:   7    -0.404988755768E+03    0.18903E-05   -0.42363E-06   742   0.243E-03
   57 T=  1928. E= -.25192793E+03 F= -.40498876E+03 E0= -.40495415E+03  EK= 0.24667E+02 SP= 0.13E+03 SK= 0.43E-01 mag=     -0.000
       N       E                     dE             d eps       ncg     rms          rms(c)
DAV:   1    -0.404538991985E+03    0.44977E+00   -0.72141E-01  1536   0.319E+00    0.886E-01
RMM:   2    -0.404564209773E+03   -0.25218E-01   -0.28669E-01  1216   0.812E-01    0.466E-01
RMM:   3    -0.404563192853E+03    0.10169E-02   -0.33248E-03  1216   0.669E-02    0.365E-01
RMM:   4    -0.404562999736E+03    0.19312E-03   -0.48039E-04  1217   0.187E-02    0.255E-01
RMM:   5    -0.404562745414E+03    0.25432E-03   -0.43011E-04  1216   0.199E-02    0.659E-02
RMM:   6    -0.404562731954E+03    0.13460E-04   -0.40223E-05   973   0.574E-03    0.176E-02
RMM:   7    -0.404562729386E+03    0.25679E-05   -0.36742E-06   759   0.229E-03
   58 T=  1867. E= -.25190219E+03 F= -.40456273E+03 E0= -.40453094E+03  EK= 0.23897E+02 SP= 0.13E+03 SK= 0.26E-01 mag=      0.000
       N       E                     dE             d eps       ncg     rms          rms(c)
DAV:   1    -0.404358708516E+03    0.20402E+00   -0.63797E-01  1584   0.313E+00    0.851E-01
RMM:   2    -0.404381735334E+03   -0.23027E-01   -0.26422E-01  1216   0.785E-01    0.414E-01
RMM:   3    -0.404380763330E+03    0.97200E-03   -0.24567E-03  1216   0.631E-02    0.323E-01
RMM:   4    -0.404380608966E+03    0.15436E-03   -0.32471E-04  1216   0.161E-02    0.231E-01
RMM:   5    -0.404380424861E+03    0.18410E-03   -0.33031E-04  1216   0.175E-02    0.638E-02
RMM:   6    -0.404380408489E+03    0.16372E-04   -0.40291E-05   974   0.559E-03    0.171E-02
RMM:   7    -0.404380406325E+03    0.21644E-05   -0.36375E-06   736   0.227E-03
   59 T=  1834. E= -.25190579E+03 F= -.40438041E+03 E0= -.40434921E+03  EK= 0.23463E+02 SP= 0.13E+03 SK= 0.85E-02 mag=      0.000
       N       E                     dE             d eps       ncg     rms          rms(c)
DAV:   1    -0.404366634665E+03    0.13774E-01   -0.67367E-01  1584   0.316E+00    0.832E-01
RMM:   2    -0.404389522259E+03   -0.22888E-01   -0.25337E-01  1216   0.768E-01    0.397E-01
RMM:   3    -0.404388850194E+03    0.67206E-03   -0.29394E-03  1216   0.621E-02    0.311E-01
RMM:   4    -0.404388620595E+03    0.22960E-03   -0.53346E-04  1218   0.218E-02    0.155E-01
RMM:   5    -0.404388539596E+03    0.80999E-04   -0.17917E-04  1216   0.120E-02    0.516E-02
RMM:   6    -0.404388530390E+03    0.92061E-05   -0.20537E-05   869   0.413E-03
   60 T=  1825. E= -.25192386E+03 F= -.40438853E+03 E0= -.40436214E+03  EK= 0.23353E+02 SP= 0.13E+03 SK= 0.14E-03 mag=     -0.000
       N       E                     dE             d eps       ncg     rms          rms(c)
DAV:   1    -0.404293511793E+03    0.95028E-01   -0.72284E-01  1584   0.322E+00    0.884E-01
RMM:   2    -0.404316944461E+03   -0.23433E-01   -0.26887E-01  1216   0.789E-01    0.420E-01
RMM:   3    -0.404316100845E+03    0.84362E-03   -0.27416E-03  1216   0.646E-02    0.329E-01
RMM:   4    -0.404315914553E+03    0.18629E-03   -0.41058E-04  1216   0.186E-02    0.209E-01
RMM:   5    -0.404315767821E+03    0.14673E-03   -0.28271E-04  1216   0.158E-02    0.615E-02
RMM:   6    -0.404315758188E+03    0.96333E-05   -0.31991E-05   946   0.511E-03
   61 T=  1822. E= -.25193939E+03 F= -.40431576E+03 E0= -.40429775E+03  EK= 0.23320E+02 SP= 0.13E+03 SK= 0.48E-02 mag=     -0.000
       N       E                     dE             d eps       ncg     rms          rms(c)
DAV:   1    -0.403930819502E+03    0.38495E+00   -0.66367E-01  1584   0.328E+00    0.911E-01
RMM:   2    -0.403954674567E+03   -0.23855E-01   -0.27296E-01  1216   0.797E-01    0.450E-01
RMM:   3    -0.403953650603E+03    0.10240E-02   -0.25902E-03  1216   0.641E-02    0.354E-01
RMM:   4    -0.403953481876E+03    0.16873E-03   -0.35203E-04  1216   0.165E-02    0.258E-01
RMM:   5    -0.403953267066E+03    0.21481E-03   -0.39718E-04  1216   0.193E-02    0.684E-02
RMM:   6    -0.403953258957E+03    0.81093E-05   -0.40349E-05   978   0.580E-03
   62 T=  1811. E= -.25193921E+03 F= -.40395326E+03 E0= -.40393852E+03  EK= 0.23171E+02 SP= 0.13E+03 SK= 0.23E-01 mag=      0.000
       N       E                     dE             d eps       ncg     rms          rms(c)
DAV:   1    -0.403314184835E+03    0.63908E+00   -0.62943E-01  1488   0.329E+00    0.906E-01
RMM:   2    -0.403339736798E+03   -0.25552E-01   -0.28013E-01  1216   0.801E-01    0.460E-01
RMM:   3    -0.403338829056E+03    0.90774E-03   -0.26145E-03  1216   0.641E-02    0.364E-01
RMM:   4    -0.403338537911E+03    0.29115E-03   -0.56874E-04  1216   0.227E-02    0.192E-01
RMM:   5    -0.403338430873E+03    0.10704E-03   -0.22164E-04  1216   0.135E-02    0.669E-02
RMM:   6    -0.403338421845E+03    0.90281E-05   -0.23834E-05   880   0.462E-03
   63 T=  1793. E= -.25192750E+03 F= -.40333842E+03 E0= -.40332210E+03  EK= 0.22948E+02 SP= 0.13E+03 SK= 0.61E-01 mag=      0.000
       N       E                     dE             d eps       ncg     rms          rms(c)
DAV:   1    -0.402665895830E+03    0.67254E+00   -0.58639E-01  1552   0.325E+00    0.906E-01
RMM:   2    -0.402692428643E+03   -0.26533E-01   -0.28775E-01  1216   0.802E-01    0.438E-01
RMM:   3    -0.402691586600E+03    0.84204E-03   -0.32836E-03  1216   0.667E-02    0.348E-01
RMM:   4    -0.402691389292E+03    0.19731E-03   -0.43398E-04  1216   0.187E-02    0.227E-01
RMM:   5    -0.402691216754E+03    0.17254E-03   -0.31246E-04  1216   0.164E-02    0.722E-02
RMM:   6    -0.402691207474E+03    0.92801E-05   -0.32040E-05   928   0.536E-03
   64 T=  1787. E= -.25192001E+03 F= -.40269121E+03 E0= -.40267269E+03  EK= 0.22868E+02 SP= 0.13E+03 SK= 0.12E+00 mag=      0.000
       N       E                     dE             d eps       ncg     rms          rms(c)
DAV:   1    -0.402173495032E+03    0.51772E+00   -0.62040E-01  1600   0.322E+00    0.903E-01
RMM:   2    -0.402199729616E+03   -0.26235E-01   -0.28290E-01  1216   0.807E-01    0.428E-01
RMM:   3    -0.402198851050E+03    0.87857E-03   -0.26034E-03  1216   0.650E-02    0.342E-01
RMM:   4    -0.402198711089E+03    0.13996E-03   -0.27010E-04  1216   0.150E-02    0.257E-01
RMM:   5    -0.402198523137E+03    0.18795E-03   -0.34227E-04  1216   0.178E-02    0.745E-02
RMM:   6    -0.402198511908E+03    0.11229E-04   -0.38242E-05   972   0.564E-03    0.193E-02
RMM:   7    -0.402198510778E+03    0.11307E-05   -0.31795E-06   741   0.221E-03
   65 T=  1807. E= -.25192203E+03 F= -.40219851E+03 E0= -.40217709E+03  EK= 0.23122E+02 SP= 0.13E+03 SK= 0.20E+00 mag=      0.000
       N       E                     dE             d eps       ncg     rms          rms(c)
DAV:   1    -0.401888724640E+03    0.30979E+00   -0.65699E-01  1600   0.321E+00    0.927E-01
RMM:   2    -0.401915569682E+03   -0.26845E-01   -0.29075E-01  1216   0.820E-01    0.442E-01
RMM:   3    -0.401914671495E+03    0.89819E-03   -0.28325E-03  1216   0.667E-02    0.352E-01
RMM:   4    -0.401914507200E+03    0.16430E-03   -0.33782E-04  1216   0.167E-02    0.254E-01
RMM:   5    -0.401914317366E+03    0.18983E-03   -0.36087E-04  1216   0.182E-02    0.718E-02
RMM:   6    -0.401914307803E+03    0.95626E-05   -0.36272E-05   960   0.554E-03
   66 T=  1857. E= -.25192987E+03 F= -.40191431E+03 E0= -.40188855E+03  EK= 0.23765E+02 SP= 0.13E+03 SK= 0.27E+00 mag=      0.000
       N       E                     dE             d eps       ncg     rms          rms(c)
DAV:   1    -0.401769823888E+03    0.14449E+00   -0.78484E-01  1616   0.323E+00    0.958E-01
RMM:   2    -0.401798681043E+03   -0.28857E-01   -0.31296E-01  1216   0.848E-01    0.459E-01
RMM:   3    -0.401797933965E+03    0.74708E-03   -0.41349E-03  1216   0.725E-02    0.364E-01
RMM:   4    -0.401797731582E+03    0.20238E-03   -0.54667E-04  1220   0.210E-02    0.226E-01
RMM:   5    -0.401797564622E+03    0.16696E-03   -0.31461E-04  1216   0.164E-02    0.685E-02
RMM:   6    -0.401797553400E+03    0.11222E-04   -0.34732E-05   949   0.535E-03    0.194E-02
RMM:   7    -0.401797552151E+03    0.12484E-05   -0.34951E-06   764   0.225E-03
   67 T=  1932. E= -.25194185E+03 F= -.40179755E+03 E0= -.40177037E+03  EK= 0.24728E+02 SP= 0.12E+03 SK= 0.32E+00 mag=      0.000
       N       E                     dE             d eps       ncg     rms          rms(c)
DAV:   1    -0.401719674170E+03    0.77879E-01   -0.86764E-01  1632   0.328E+00    0.992E-01
RMM:   2    -0.401749783534E+03   -0.30109E-01   -0.33270E-01  1216   0.874E-01    0.463E-01
RMM:   3    -0.401748930052E+03    0.85348E-03   -0.41446E-03  1216   0.754E-02    0.366E-01
RMM:   4    -0.401748775591E+03    0.15446E-03   -0.43884E-04  1219   0.186E-02    0.259E-01
RMM:   5    -0.401748595399E+03    0.18019E-03   -0.37001E-04  1216   0.183E-02    0.718E-02
RMM:   6    -0.401748579382E+03    0.16017E-04   -0.45536E-05   998   0.583E-03    0.214E-02
RMM:   7    -0.401748578091E+03    0.12913E-05   -0.41066E-06   765   0.236E-03
   68 T=  2020. E= -.25195829E+03 F= -.40174858E+03 E0= -.40172166E+03  EK= 0.25850E+02 SP= 0.12E+03 SK= 0.32E+00 mag=      0.000
       N       E                     dE             d eps       ncg     rms          rms(c)
DAV:   1    -0.401576202891E+03    0.17238E+00   -0.85643E-01  1552   0.333E+00    0.994E-01
RMM:   2    -0.401606569753E+03   -0.30367E-01   -0.33247E-01  1216   0.877E-01    0.486E-01
RMM:   3    -0.401605758607E+03    0.81115E-03   -0.37954E-03  1216   0.728E-02    0.385E-01
RMM:   4    -0.401605567615E+03    0.19099E-03   -0.46570E-04  1218   0.196E-02    0.254E-01
RMM:   5    -0.401605383608E+03    0.18401E-03   -0.35459E-04  1216   0.179E-02    0.696E-02
RMM:   6    -0.401605377219E+03    0.63891E-05   -0.35173E-05   947   0.552E-03
   69 T=  2101. E= -.25197457E+03 F= -.40160538E+03 E0= -.40157989E+03  EK= 0.26881E+02 SP= 0.12E+03 SK= 0.27E+00 mag=      0.000
       N       E                     dE             d eps       ncg     rms          rms(c)
DAV:   1    -0.401207291061E+03    0.39809E+00   -0.88709E-01  1520   0.338E+00    0.105E+00
RMM:   2    -0.401237583951E+03   -0.30293E-01   -0.34575E-01  1216   0.898E-01    0.521E-01
RMM:   3    -0.401236396269E+03    0.11877E-02   -0.35332E-03  1216   0.731E-02    0.413E-01
RMM:   4    -0.401236207553E+03    0.18872E-03   -0.39002E-04  1216   0.178E-02    0.306E-01
RMM:   5    -0.401235966175E+03    0.24138E-03   -0.48454E-04  1216   0.213E-02    0.787E-02
RMM:   6    -0.401235954162E+03    0.12013E-04   -0.51986E-05  1031   0.637E-03    0.202E-02
RMM:   7    -0.401235952845E+03    0.13174E-05   -0.38337E-06   757   0.230E-03
   70 T=  2156. E= -.25197484E+03 F= -.40123595E+03 E0= -.40121230E+03  EK= 0.27596E+02 SP= 0.12E+03 SK= 0.19E+00 mag=     -0.000
       N       E                     dE             d eps       ncg     rms          rms(c)
DAV:   1    -0.400693076064E+03    0.54288E+00   -0.97275E-01  1520   0.339E+00    0.107E+00
RMM:   2    -0.400725049708E+03   -0.31974E-01   -0.35782E-01  1216   0.919E-01    0.532E-01
RMM:   3    -0.400723862425E+03    0.11873E-02   -0.34872E-03  1216   0.741E-02    0.422E-01
RMM:   4    -0.400723618420E+03    0.24401E-03   -0.49722E-04  1216   0.204E-02    0.287E-01
RMM:   5    -0.400723372855E+03    0.24556E-03   -0.48674E-04  1216   0.212E-02    0.708E-02
RMM:   6    -0.400723363463E+03    0.93924E-05   -0.42091E-05   978   0.586E-03
   71 T=  2187. E= -.25196189E+03 F= -.40072336E+03 E0= -.40070050E+03  EK= 0.27986E+02 SP= 0.12E+03 SK= 0.11E+00 mag=     -0.000
       N       E                     dE             d eps       ncg     rms          rms(c)
DAV:   1    -0.400302672074E+03    0.42070E+00   -0.10735E+00  1584   0.339E+00    0.105E+00
RMM:   2    -0.400335813418E+03   -0.33141E-01   -0.36781E-01  1216   0.932E-01    0.523E-01
RMM:   3    -0.400334558872E+03    0.12545E-02   -0.38606E-03  1216   0.763E-02    0.415E-01
RMM:   4    -0.400334360297E+03    0.19857E-03   -0.41416E-04  1216   0.180E-02    0.316E-01
RMM:   5    -0.400334070714E+03    0.28958E-03   -0.55983E-04  1216   0.231E-02    0.778E-02
RMM:   6    -0.400334055821E+03    0.14893E-04   -0.49811E-05  1004   0.643E-03    0.228E-02
RMM:   7    -0.400334052690E+03    0.31308E-05   -0.51831E-06   770   0.259E-03
   72 T=  2208. E= -.25194993E+03 F= -.40033405E+03 E0= -.40031246E+03  EK= 0.28249E+02 SP= 0.12E+03 SK= 0.47E-01 mag=      0.000
       N       E                     dE             d eps       ncg     rms          rms(c)
DAV:   1    -0.400246968916E+03    0.87087E-01   -0.10765E+00  1584   0.341E+00    0.106E+00
RMM:   2    -0.400278371661E+03   -0.31403E-01   -0.37382E-01  1216   0.935E-01    0.509E-01
RMM:   3    -0.400276656609E+03    0.17151E-02   -0.46284E-03  1216   0.797E-02    0.400E-01
RMM:   4    -0.400276405268E+03    0.25134E-03   -0.45650E-04  1216   0.183E-02    0.317E-01
RMM:   5    -0.400276100962E+03    0.30431E-03   -0.57935E-04  1216   0.240E-02    0.830E-02
RMM:   6    -0.400276071650E+03    0.29311E-04   -0.77275E-05  1054   0.768E-03    0.235E-02
RMM:   7    -0.400276067905E+03    0.37457E-05   -0.62136E-06   784   0.282E-03
   73 T=  2230. E= -.25196329E+03 F= -.40027607E+03 E0= -.40025534E+03  EK= 0.28539E+02 SP= 0.12E+03 SK= 0.81E-02 mag=     -0.000
       N       E                     dE             d eps       ncg     rms          rms(c)
DAV:   1    -0.400371708768E+03   -0.95637E-01   -0.86567E-01  1520   0.348E+00    0.105E+00
RMM:   2    -0.400402377540E+03   -0.30669E-01   -0.36063E-01  1216   0.925E-01    0.489E-01
RMM:   3    -0.400400808484E+03    0.15691E-02   -0.39275E-03  1216   0.764E-02    0.384E-01
RMM:   4    -0.400400554066E+03    0.25442E-03   -0.39155E-04  1216   0.174E-02    0.309E-01
RMM:   5    -0.400400279286E+03    0.27478E-03   -0.55811E-04  1216   0.236E-02    0.777E-02
RMM:   6    -0.400400260986E+03    0.18300E-04   -0.61608E-05  1037   0.700E-03    0.236E-02
RMM:   7    -0.400400258105E+03    0.28805E-05   -0.59079E-06   765   0.272E-03
   74 T=  2241. E= -.25199648E+03 F= -.40040026E+03 E0= -.40037054E+03  EK= 0.28678E+02 SP= 0.12E+03 SK= 0.24E-02 mag=      0.000
       N       E                     dE             d eps       ncg     rms          rms(c)
DAV:   1    -0.400218259070E+03    0.18200E+00   -0.76856E-01  1488   0.355E+00    0.110E+00
RMM:   2    -0.400248146139E+03   -0.29887E-01   -0.35938E-01  1216   0.917E-01    0.500E-01
RMM:   3    -0.400245993551E+03    0.21526E-02   -0.50771E-03  1216   0.779E-02    0.395E-01
RMM:   4    -0.400245678991E+03    0.31456E-03   -0.43698E-04  1216   0.178E-02    0.321E-01
RMM:   5    -0.400245419120E+03    0.25987E-03   -0.57722E-04  1216   0.241E-02    0.831E-02
RMM:   6    -0.400245390599E+03    0.28520E-04   -0.78955E-05  1054   0.757E-03    0.252E-02
RMM:   7    -0.400245387877E+03    0.27221E-05   -0.64898E-06   796   0.276E-03
   75 T=  2205. E= -.25201847E+03 F= -.40024539E+03 E0= -.40021039E+03  EK= 0.28223E+02 SP= 0.12E+03 SK= 0.35E-01 mag=      0.000
       N       E                     dE             d eps       ncg     rms          rms(c)
DAV:   1    -0.399449470305E+03    0.79592E+00   -0.95232E-01  1504   0.352E+00    0.111E+00
RMM:   2    -0.399481710629E+03   -0.32240E-01   -0.36506E-01  1216   0.925E-01    0.511E-01
RMM:   3    -0.399480180565E+03    0.15301E-02   -0.44928E-03  1216   0.770E-02    0.407E-01
RMM:   4    -0.399479961386E+03    0.21918E-03   -0.37409E-04  1216   0.165E-02    0.335E-01
RMM:   5    -0.399479714513E+03    0.24687E-03   -0.50783E-04  1216   0.224E-02    0.863E-02
RMM:   6    -0.399479695888E+03    0.18626E-04   -0.63551E-05  1054   0.705E-03    0.233E-02
RMM:   7    -0.399479694458E+03    0.14296E-05   -0.48935E-06   773   0.252E-03
   76 T=  2104. E= -.25200391E+03 F= -.39947969E+03 E0= -.39944547E+03  EK= 0.26929E+02 SP= 0.12E+03 SK= 0.83E-01 mag=      0.000
       N       E                     dE             d eps       ncg     rms          rms(c)
DAV:   1    -0.398244479430E+03    0.12352E+01   -0.10283E+00  1440   0.339E+00    0.109E+00
RMM:   2    -0.398274948614E+03   -0.30469E-01   -0.35673E-01  1216   0.913E-01    0.553E-01
RMM:   3    -0.398273627447E+03    0.13212E-02   -0.38418E-03  1216   0.747E-02    0.435E-01
RMM:   4    -0.398273415426E+03    0.21202E-03   -0.51389E-04  1216   0.197E-02    0.317E-01
RMM:   5    -0.398273096000E+03    0.31943E-03   -0.55043E-04  1216   0.228E-02    0.772E-02
RMM:   6    -0.398273081744E+03    0.14256E-04   -0.54785E-05  1031   0.667E-03    0.200E-02
RMM:   7    -0.398273079387E+03    0.23577E-05   -0.48645E-06   771   0.250E-03
   77 T=  1962. E= -.25196392E+03 F= -.39827308E+03 E0= -.39824268E+03  EK= 0.25109E+02 SP= 0.12E+03 SK= 0.10E+00 mag=     -0.000
       N       E                     dE             d eps       ncg     rms          rms(c)
DAV:   1    -0.397169534315E+03    0.11035E+01   -0.86500E-01  1440   0.326E+00    0.105E+00
RMM:   2    -0.397198345937E+03   -0.28812E-01   -0.34875E-01  1216   0.896E-01    0.543E-01
RMM:   3    -0.397196997685E+03    0.13483E-02   -0.44511E-03  1216   0.757E-02    0.423E-01
RMM:   4    -0.397196749722E+03    0.24796E-03   -0.63855E-04  1216   0.218E-02    0.287E-01
RMM:   5    -0.397196446208E+03    0.30351E-03   -0.52247E-04  1216   0.217E-02    0.753E-02
RMM:   6    -0.397196426783E+03    0.19425E-04   -0.53139E-05  1019   0.645E-03    0.208E-02
RMM:   7    -0.397196423886E+03    0.28974E-05   -0.46196E-06   774   0.246E-03
   78 T=  1834. E= -.25192570E+03 F= -.39719642E+03 E0= -.39716857E+03  EK= 0.23475E+02 SP= 0.12E+03 SK= 0.76E-01 mag=     -0.000
       N       E                     dE             d eps       ncg     rms          rms(c)
DAV:   1    -0.396791534698E+03    0.40489E+00   -0.71346E-01  1600   0.317E+00    0.957E-01
RMM:   2    -0.396819556869E+03   -0.28022E-01   -0.31828E-01  1216   0.855E-01    0.488E-01
RMM:   3    -0.396818513001E+03    0.10439E-02   -0.35224E-03  1216   0.708E-02    0.383E-01
RMM:   4    -0.396818293044E+03    0.21996E-03   -0.46463E-04  1216   0.192E-02    0.261E-01
RMM:   5    -0.396818049832E+03    0.24321E-03   -0.42719E-04  1216   0.198E-02    0.672E-02
RMM:   6    -0.396818035628E+03    0.14204E-04   -0.38897E-05   962   0.575E-03    0.173E-02
RMM:   7    -0.396818033112E+03    0.25154E-05   -0.34910E-06   752   0.230E-03
   79 T=  1772. E= -.25191430E+03 F= -.39681803E+03 E0= -.39679192E+03  EK= 0.22680E+02 SP= 0.12E+03 SK= 0.31E-01 mag=      0.000
       N       E                     dE             d eps       ncg     rms          rms(c)
DAV:   1    -0.397288882388E+03   -0.47085E+00   -0.66403E-01  1584   0.312E+00    0.907E-01
RMM:   2    -0.397315648382E+03   -0.26766E-01   -0.29422E-01  1216   0.818E-01    0.462E-01
RMM:   3    -0.397314796285E+03    0.85210E-03   -0.30938E-03  1216   0.683E-02    0.366E-01
RMM:   4    -0.397314625544E+03    0.17074E-03   -0.39248E-04  1216   0.177E-02    0.255E-01
RMM:   5    -0.397314420920E+03    0.20462E-03   -0.37119E-04  1216   0.183E-02    0.675E-02
RMM:   6    -0.397314411827E+03    0.90930E-05   -0.36363E-05   961   0.560E-03
   80 T=  1792. E= -.25192780E+03 F= -.39731441E+03 E0= -.39728900E+03  EK= 0.22932E+02 SP= 0.12E+03 SK= 0.47E-02 mag=     -0.000
       N       E                     dE             d eps       ncg     rms          rms(c)
DAV:   1    -0.398461902666E+03   -0.11475E+01   -0.69601E-01  1584   0.319E+00    0.951E-01
RMM:   2    -0.398489756078E+03   -0.27853E-01   -0.30608E-01  1216   0.830E-01    0.480E-01
RMM:   3    -0.398488744303E+03    0.10118E-02   -0.35020E-03  1216   0.708E-02    0.379E-01
RMM:   4    -0.398488565553E+03    0.17875E-03   -0.38571E-04  1216   0.172E-02    0.283E-01
RMM:   5    -0.398488334633E+03    0.23092E-03   -0.45653E-04  1216   0.206E-02    0.737E-02
RMM:   6    -0.398488327214E+03    0.74192E-05   -0.43352E-05   998   0.607E-03
   81 T=  1878. E= -.25194133E+03 F= -.39848833E+03 E0= -.39846115E+03  EK= 0.24035E+02 SP= 0.12E+03 SK= 0.92E-04 mag=      0.000
       N       E                     dE             d eps       ncg     rms          rms(c)
DAV:   1    -0.400062753997E+03   -0.15744E+01   -0.77153E-01  1472   0.332E+00    0.101E+00
RMM:   2    -0.400092103059E+03   -0.29349E-01   -0.32692E-01  1216   0.865E-01    0.506E-01
RMM:   3    -0.400090682673E+03    0.14204E-02   -0.32975E-03  1216   0.719E-02    0.398E-01
RMM:   4    -0.400090450507E+03    0.23217E-03   -0.38511E-04  1216   0.175E-02    0.306E-01
RMM:   5    -0.400090156938E+03    0.29357E-03   -0.59311E-04  1216   0.237E-02    0.781E-02
RMM:   6    -0.400090148975E+03    0.79630E-05   -0.49092E-05  1019   0.651E-03
   82 T=  2005. E= -.25195601E+03 F= -.40009015E+03 E0= -.40006191E+03  EK= 0.25662E+02 SP= 0.12E+03 SK= 0.87E-03 mag=      0.000
       N       E                     dE             d eps       ncg     rms          rms(c)
DAV:   1    -0.401816855740E+03   -0.17267E+01   -0.76530E-01  1472   0.346E+00    0.102E+00
RMM:   2    -0.401847401651E+03   -0.30546E-01   -0.33953E-01  1216   0.880E-01    0.490E-01
RMM:   3    -0.401846235740E+03    0.11659E-02   -0.37071E-03  1216   0.726E-02    0.385E-01
RMM:   4    -0.401845983749E+03    0.25199E-03   -0.52869E-04  1216   0.206E-02    0.258E-01
RMM:   5    -0.401845764858E+03    0.21889E-03   -0.45134E-04  1216   0.200E-02    0.734E-02
RMM:   6    -0.401845759377E+03    0.54812E-05   -0.38343E-05   961   0.577E-03
   83 T=  2141. E= -.25198716E+03 F= -.40184576E+03 E0= -.40181774E+03  EK= 0.27394E+02 SP= 0.12E+03 SK= 0.55E-03 mag=      0.000
       N       E                     dE             d eps       ncg     rms          rms(c)
DAV:   1    -0.403243623955E+03   -0.13979E+01   -0.76298E-01  1568   0.360E+00    0.101E+00
RMM:   2    -0.403275599966E+03   -0.31976E-01   -0.34243E-01  1216   0.893E-01    0.463E-01
RMM:   3    -0.403274767530E+03    0.83244E-03   -0.32030E-03  1216   0.715E-02    0.367E-01
RMM:   4    -0.403274552220E+03    0.21531E-03   -0.51819E-04  1216   0.212E-02    0.217E-01
RMM:   5    -0.403274425567E+03    0.12665E-03   -0.25571E-04  1216   0.148E-02    0.720E-02
RMM:   6    -0.403274422683E+03    0.28839E-05   -0.27012E-05   901   0.495E-03
   84 T=  2234. E= -.25202284E+03 F= -.40327442E+03 E0= -.40324867E+03  EK= 0.28594E+02 SP= 0.12E+03 SK= 0.20E-01 mag=     -0.000
       N       E                     dE             d eps       ncg     rms          rms(c)
DAV:   1    -0.403819456050E+03   -0.54503E+00   -0.82285E-01  1632   0.364E+00    0.105E+00
RMM:   2    -0.403853325167E+03   -0.33869E-01   -0.36335E-01  1216   0.918E-01    0.479E-01
RMM:   3    -0.403852381416E+03    0.94375E-03   -0.38215E-03  1216   0.748E-02    0.380E-01
RMM:   4    -0.403852222873E+03    0.15854E-03   -0.39562E-04  1218   0.176E-02    0.279E-01
RMM:   5    -0.403852030599E+03    0.19227E-03   -0.38097E-04  1216   0.189E-02    0.773E-02
RMM:   6    -0.403852026459E+03    0.41404E-05   -0.38966E-05   965   0.585E-03
   85 T=  2239. E= -.25202870E+03 F= -.40385203E+03 E0= -.40383219E+03  EK= 0.28651E+02 SP= 0.12E+03 SK= 0.84E-01 mag=     -0.000
       N       E                     dE             d eps       ncg     rms          rms(c)
DAV:   1    -0.403422615699E+03    0.42941E+00   -0.79067E-01  1536   0.356E+00    0.105E+00
RMM:   2    -0.403456969368E+03   -0.34354E-01   -0.37039E-01  1216   0.927E-01    0.521E-01
RMM:   3    -0.403455884594E+03    0.10848E-02   -0.38992E-03  1216   0.762E-02    0.414E-01
RMM:   4    -0.403455670756E+03    0.21384E-03   -0.47181E-04  1216   0.197E-02    0.288E-01
RMM:   5    -0.403455440459E+03    0.23030E-03   -0.42877E-04  1216   0.198E-02    0.800E-02
RMM:   6    -0.403455434088E+03    0.63711E-05   -0.40667E-05   981   0.604E-03
   86 T=  2146. E= -.25199587E+03 F= -.40345543E+03 E0= -.40344136E+03  EK= 0.27467E+02 SP= 0.12E+03 SK= 0.17E+00 mag=      0.000
       N       E                     dE             d eps       ncg     rms          rms(c)
DAV:   1    -0.402481560427E+03    0.97388E+00   -0.77430E-01  1536   0.338E+00    0.998E-01
RMM:   2    -0.402516154811E+03   -0.34594E-01   -0.37032E-01  1216   0.912E-01    0.540E-01
RMM:   3    -0.402515313114E+03    0.84170E-03   -0.44792E-03  1216   0.775E-02    0.432E-01
RMM:   4    -0.402515010379E+03    0.30274E-03   -0.67848E-04  1216   0.246E-02    0.230E-01
RMM:   5    -0.402514881767E+03    0.12861E-03   -0.26115E-04  1216   0.146E-02    0.742E-02
RMM:   6    -0.402514871597E+03    0.10169E-04   -0.29422E-05   916   0.496E-03    0.167E-02
RMM:   7    -0.402514869980E+03    0.16170E-05   -0.32087E-06   756   0.218E-03
   87 T=  2001. E= -.25194434E+03 F= -.40251487E+03 E0= -.40250304E+03  EK= 0.25611E+02 SP= 0.12E+03 SK= 0.22E+00 mag=      0.000
       N       E                     dE             d eps       ncg     rms          rms(c)
DAV:   1    -0.401694426309E+03    0.82045E+00   -0.83606E-01  1584   0.323E+00    0.100E+00
RMM:   2    -0.401726122405E+03   -0.31696E-01   -0.34010E-01  1216   0.897E-01    0.491E-01
RMM:   3    -0.401725337514E+03    0.78489E-03   -0.33767E-03  1216   0.736E-02    0.389E-01
RMM:   4    -0.401725093209E+03    0.24430E-03   -0.54374E-04  1216   0.224E-02    0.214E-01
RMM:   5    -0.401724963797E+03    0.12941E-03   -0.22219E-04  1216   0.138E-02    0.681E-02
RMM:   6    -0.401724951885E+03    0.11912E-04   -0.25375E-05   895   0.472E-03    0.164E-02
RMM:   7    -0.401724949483E+03    0.24020E-05   -0.32797E-06   755   0.219E-03
   88 T=  1870. E= -.25191417E+03 F= -.40172495E+03 E0= -.40171151E+03  EK= 0.23924E+02 SP= 0.13E+03 SK= 0.20E+00 mag=     -0.000
       N       E                     dE             d eps       ncg     rms          rms(c)
DAV:   1    -0.401444545501E+03    0.28041E+00   -0.67924E-01  1552   0.315E+00    0.920E-01
RMM:   2    -0.401472647736E+03   -0.28102E-01   -0.30061E-01  1216   0.839E-01    0.437E-01
RMM:   3    -0.401471995908E+03    0.65183E-03   -0.34504E-03  1216   0.700E-02    0.345E-01
RMM:   4    -0.401471795787E+03    0.20012E-03   -0.48859E-04  1216   0.208E-02    0.197E-01
RMM:   5    -0.401471675443E+03    0.12034E-03   -0.20598E-04  1216   0.132E-02    0.674E-02
RMM:   6    -0.401471665240E+03    0.10203E-04   -0.24623E-05   886   0.466E-03    0.174E-02
RMM:   7    -0.401471663313E+03    0.19270E-05   -0.32888E-06   749   0.220E-03
   89 T=  1789. E= -.25192492E+03 F= -.40147166E+03 E0= -.40145312E+03  EK= 0.22889E+02 SP= 0.13E+03 SK= 0.13E+00 mag=     -0.000
       N       E                     dE             d eps       ncg     rms          rms(c)
DAV:   1    -0.401547811071E+03   -0.76146E-01   -0.62701E-01  1632   0.318E+00    0.878E-01
RMM:   2    -0.401573185183E+03   -0.25374E-01   -0.27144E-01  1216   0.801E-01    0.421E-01
RMM:   3    -0.401572477527E+03    0.70766E-03   -0.25038E-03  1216   0.646E-02    0.333E-01
RMM:   4    -0.401572289105E+03    0.18842E-03   -0.43253E-04  1216   0.197E-02    0.192E-01
RMM:   5    -0.401572175793E+03    0.11331E-03   -0.20189E-04  1216   0.130E-02    0.666E-02
RMM:   6    -0.401572169008E+03    0.67844E-05   -0.22765E-05   874   0.457E-03
   90 T=  1750. E= -.25194671E+03 F= -.40157217E+03 E0= -.40154802E+03  EK= 0.22400E+02 SP= 0.13E+03 SK= 0.62E-01 mag=      0.000
       N       E                     dE             d eps       ncg     rms          rms(c)
DAV:   1    -0.401660009797E+03   -0.87834E-01   -0.59325E-01  1488   0.326E+00    0.910E-01
RMM:   2    -0.401685835249E+03   -0.25825E-01   -0.28236E-01  1216   0.805E-01    0.465E-01
RMM:   3    -0.401684726971E+03    0.11083E-02   -0.27268E-03  1216   0.657E-02    0.369E-01
RMM:   4    -0.401684534594E+03    0.19238E-03   -0.35157E-04  1216   0.171E-02    0.267E-01
RMM:   5    -0.401684316331E+03    0.21826E-03   -0.44343E-04  1216   0.200E-02    0.741E-02
RMM:   6    -0.401684308664E+03    0.76673E-05   -0.36682E-05   959   0.567E-03
   91 T=  1732. E= -.25194675E+03 F= -.40168431E+03 E0= -.40165737E+03  EK= 0.22168E+02 SP= 0.13E+03 SK= 0.15E-01 mag=      0.000
       N       E                     dE             d eps       ncg     rms          rms(c)
DAV:   1    -0.401757000344E+03   -0.72684E-01   -0.59885E-01  1536   0.333E+00    0.897E-01
RMM:   2    -0.401783896433E+03   -0.26896E-01   -0.29015E-01  1216   0.810E-01    0.489E-01
RMM:   3    -0.401782716785E+03    0.11796E-02   -0.29375E-03  1216   0.663E-02    0.389E-01
RMM:   4    -0.401782507955E+03    0.20883E-03   -0.37150E-04  1217   0.171E-02    0.290E-01
RMM:   5    -0.401782236821E+03    0.27113E-03   -0.52701E-04  1216   0.217E-02    0.821E-02
RMM:   6    -0.401782225537E+03    0.11285E-04   -0.46797E-05  1001   0.622E-03    0.260E-02
RMM:   7    -0.401782223698E+03    0.18390E-05   -0.46365E-06   757   0.247E-03
   92 T=  1733. E= -.25192508E+03 F= -.40178222E+03 E0= -.40175281E+03  EK= 0.22180E+02 SP= 0.13E+03 SK= 0.35E-04 mag=     -0.000
       N       E                     dE             d eps       ncg     rms          rms(c)
DAV:   1    -0.402124239450E+03   -0.34201E+00   -0.62321E-01  1536   0.336E+00    0.891E-01
RMM:   2    -0.402151349104E+03   -0.27110E-01   -0.29569E-01  1216   0.806E-01    0.463E-01
RMM:   3    -0.402150353104E+03    0.99600E-03   -0.32710E-03  1216   0.676E-02    0.366E-01
RMM:   4    -0.402150121680E+03    0.23142E-03   -0.48308E-04  1218   0.198E-02    0.239E-01
RMM:   5    -0.402149923279E+03    0.19840E-03   -0.38078E-04  1216   0.179E-02    0.747E-02
RMM:   6    -0.402149909594E+03    0.13686E-04   -0.40524E-05   986   0.568E-03    0.226E-02
RMM:   7    -0.402149907974E+03    0.16198E-05   -0.36667E-06   757   0.225E-03
   93 T=  1773. E= -.25191339E+03 F= -.40214991E+03 E0= -.40211630E+03  EK= 0.22683E+02 SP= 0.13E+03 SK= 0.16E-01 mag=      0.000
       N       E                     dE             d eps       ncg     rms          rms(c)
DAV:   1    -0.402905448991E+03   -0.75554E+00   -0.68039E-01  1648   0.342E+00    0.910E-01
RMM:   2    -0.402932517829E+03   -0.27069E-01   -0.29953E-01  1216   0.812E-01    0.423E-01
RMM:   3    -0.402931571851E+03    0.94598E-03   -0.47814E-03  1216   0.719E-02    0.332E-01
RMM:   4    -0.402931416005E+03    0.15585E-03   -0.38650E-04  1220   0.165E-02    0.260E-01
RMM:   5    -0.402931204313E+03    0.21169E-03   -0.40136E-04  1216   0.197E-02    0.705E-02
RMM:   6    -0.402931194508E+03    0.98053E-05   -0.44976E-05  1013   0.621E-03
   94 T=  1857. E= -.25193985E+03 F= -.40293119E+03 E0= -.40289668E+03  EK= 0.23767E+02 SP= 0.13E+03 SK= 0.47E-01 mag=      0.000
       N       E                     dE             d eps       ncg     rms          rms(c)
DAV:   1    -0.403726477402E+03   -0.79527E+00   -0.77091E-01  1648   0.352E+00    0.964E-01
RMM:   2    -0.403755621123E+03   -0.29144E-01   -0.31492E-01  1216   0.845E-01    0.422E-01
RMM:   3    -0.403754815195E+03    0.80593E-03   -0.39620E-03  1216   0.727E-02    0.335E-01
RMM:   4    -0.403754685650E+03    0.12954E-03   -0.35566E-04  1217   0.162E-02    0.262E-01
RMM:   5    -0.403754501643E+03    0.18401E-03   -0.36185E-04  1216   0.185E-02    0.710E-02
RMM:   6    -0.403754494659E+03    0.69842E-05   -0.39076E-05   974   0.581E-03
   95 T=  1955. E= -.25198722E+03 F= -.40375449E+03 E0= -.40372031E+03  EK= 0.25015E+02 SP= 0.13E+03 SK= 0.63E-01 mag=      0.000
       N       E                     dE             d eps       ncg     rms          rms(c)
DAV:   1    -0.403944676764E+03   -0.19018E+00   -0.84929E-01  1648   0.360E+00    0.105E+00
RMM:   2    -0.403975161644E+03   -0.30485E-01   -0.33340E-01  1216   0.880E-01    0.464E-01
RMM:   3    -0.403974263077E+03    0.89857E-03   -0.37053E-03  1216   0.733E-02    0.368E-01
RMM:   4    -0.403974120613E+03    0.14246E-03   -0.37095E-04  1216   0.168E-02    0.280E-01
RMM:   5    -0.403973917154E+03    0.20346E-03   -0.40555E-04  1216   0.195E-02    0.744E-02
RMM:   6    -0.403973910287E+03    0.68671E-05   -0.41086E-05   990   0.597E-03
   96 T=  2011. E= -.25201057E+03 F= -.40397391E+03 E0= -.40393917E+03  EK= 0.25730E+02 SP= 0.13E+03 SK= 0.58E-01 mag=     -0.000
       N       E                     dE             d eps       ncg     rms          rms(c)
DAV:   1    -0.403266009665E+03    0.70791E+00   -0.72735E-01  1488   0.354E+00    0.107E+00
RMM:   2    -0.403296815740E+03   -0.30806E-01   -0.34607E-01  1216   0.894E-01    0.515E-01
RMM:   3    -0.403295581022E+03    0.12347E-02   -0.37568E-03  1216   0.737E-02    0.405E-01
RMM:   4    -0.403295370348E+03    0.21067E-03   -0.47508E-04  1216   0.191E-02    0.294E-01
RMM:   5    -0.403295103644E+03    0.26670E-03   -0.51113E-04  1216   0.216E-02    0.808E-02
RMM:   6    -0.403295092604E+03    0.11039E-04   -0.49541E-05  1008   0.639E-03    0.222E-02
RMM:   7    -0.403295091055E+03    0.15494E-05   -0.43760E-06   767   0.243E-03
   97 T=  1998. E= -.25199006E+03 F= -.40329509E+03 E0= -.40326409E+03  EK= 0.25563E+02 SP= 0.13E+03 SK= 0.48E-01 mag=     -0.000
       N       E                     dE             d eps       ncg     rms          rms(c)
DAV:   1    -0.402056165011E+03    0.12389E+01   -0.68066E-01  1520   0.338E+00    0.103E+00
RMM:   2    -0.402086357920E+03   -0.30193E-01   -0.35315E-01  1216   0.899E-01    0.561E-01
RMM:   3    -0.402084824402E+03    0.15335E-02   -0.39061E-03  1216   0.748E-02    0.446E-01
RMM:   4    -0.402084595612E+03    0.22879E-03   -0.43126E-04  1216   0.184E-02    0.341E-01
RMM:   5    -0.402084259628E+03    0.33598E-03   -0.67157E-04  1216   0.252E-02    0.778E-02
RMM:   6    -0.402084245390E+03    0.14238E-04   -0.56069E-05  1044   0.685E-03    0.178E-02
RMM:   7    -0.402084242852E+03    0.25379E-05   -0.42123E-06   767   0.237E-03
   98 T=  1943. E= -.25193904E+03 F= -.40208424E+03 E0= -.40205936E+03  EK= 0.24862E+02 SP= 0.13E+03 SK= 0.49E-01 mag=      0.000
       N       E                     dE             d eps       ncg     rms          rms(c)
DAV:   1    -0.401143532622E+03    0.94071E+00   -0.71548E-01  1456   0.326E+00    0.998E-01
RMM:   2    -0.401174353050E+03   -0.30820E-01   -0.34052E-01  1216   0.899E-01    0.562E-01
RMM:   3    -0.401173246613E+03    0.11064E-02   -0.31153E-03  1216   0.708E-02    0.449E-01
RMM:   4    -0.401173008588E+03    0.23802E-03   -0.46849E-04  1216   0.199E-02    0.306E-01
RMM:   5    -0.401172726055E+03    0.28253E-03   -0.49286E-04  1216   0.213E-02    0.736E-02
RMM:   6    -0.401172712467E+03    0.13588E-04   -0.40869E-05   980   0.591E-03    0.174E-02
RMM:   7    -0.401172709197E+03    0.32693E-05   -0.39523E-06   740   0.234E-03
   99 T=  1913. E= -.25189007E+03 F= -.40117271E+03 E0= -.40115066E+03  EK= 0.24477E+02 SP= 0.12E+03 SK= 0.63E-01 mag=      0.000
       N       E                     dE             d eps       ncg     rms          rms(c)
DAV:   1    -0.401298745256E+03   -0.12603E+00   -0.82109E-01  1552   0.321E+00    0.987E-01
RMM:   2    -0.401329511832E+03   -0.30767E-01   -0.33733E-01  1216   0.889E-01    0.510E-01
RMM:   3    -0.401328506857E+03    0.10050E-02   -0.39836E-03  1216   0.732E-02    0.400E-01
RMM:   4    -0.401328297332E+03    0.20952E-03   -0.49796E-04  1216   0.195E-02    0.283E-01
RMM:   5    -0.401328015623E+03    0.28171E-03   -0.47473E-04  1216   0.211E-02    0.726E-02
RMM:   6    -0.401328000584E+03    0.15040E-04   -0.43576E-05   966   0.591E-03    0.221E-02
RMM:   7    -0.401327996632E+03    0.39515E-05   -0.43830E-06   774   0.244E-03
  100 T=  1967. E= -.25188763E+03 F= -.40132800E+03 E0= -.40130703E+03  EK= 0.25174E+02 SP= 0.12E+03 SK= 0.78E-01 mag=     -0.000
