<?xml version="1.0" encoding="ISO-8859-1"?>
<modeling>
 <generator>
  <i name="program" type="string">vasp </i>
  <i name="version" type="string">5.4.4.18Apr17-6-g9f103f2a35  </i>
  <i name="subversion" type="string">(build Sep 16 2020 16:20:45) complex            parallel </i>
  <i name="platform" type="string">LinuxIFC </i>
  <i name="date" type="string">2021 08 05 </i>
  <i name="time" type="string">14:57:57 </i>
 </generator>
 <incar>
  <i type="string" name="PREC">normal</i>
  <i type="string" name="ALGO"> Fast</i>
  <i type="int" name="ISPIN">     2</i>
  <i type="int" name="NELM">    60</i>
  <i type="int" name="NELMIN">     4</i>
  <i type="int" name="IBRION">     0</i>
  <i name="EDIFF">      0.00001000</i>
  <i type="int" name="NSW">   100</i>
  <i type="int" name="ISIF">     2</i>
  <i type="int" name="ISYM">     0</i>
  <i name="POTIM">      3.00000000</i>
  <i name="TEBEG">   2000.00000000</i>
  <i name="TEEND">   2000.00000000</i>
  <i name="SMASS">      1.00000000</i>
  <i type="string" name="LREAL"> auto</i>
  <i type="int" name="ISMEAR">     0</i>
  <i name="SIGMA">      0.05000000</i>
  <i type="logical" name="LWAVE"> F  </i>
  <i type="logical" name="LCHARG"> F  </i>
  <i type="int" name="MDALGO">     2</i>
  <v type="int" name="KPOINT_BSE">    -1     0     0     0</v>
  <i type="int" name="NELM">    60</i>
 </incar>
 <structure name="primitive_cell" >
  <crystal>
   <varray name="basis" >
    <v>      10.21149500       0.00000000       0.00000000 </v>
    <v>       0.00000000      10.21149500       0.00000000 </v>
    <v>       0.00000000       0.00000000      10.21149500 </v>
   </varray>
   <i name="volume">   1064.79986425 </i>
   <varray name="rec_basis" >
    <v>       0.09792885       0.00000000       0.00000000 </v>
    <v>       0.00000000       0.09792885       0.00000000 </v>
    <v>       0.00000000       0.00000000       0.09792885 </v>
   </varray>
  </crystal>
  <varray name="positions" >
   <v>      -0.17321294      -0.23028251       0.09252905 </v>
   <v>      -0.22931515      -0.07643635       0.23944536 </v>
   <v>      -0.22062251      -0.34745668      -0.09431001 </v>
   <v>       0.02136894      -0.20119832      -0.02043572 </v>
   <v>      -0.17872651      -0.10244089      -0.09498038 </v>
   <v>      -0.09233553      -0.21619515       0.30493007 </v>
   <v>      -0.09736975      -0.44753859       0.06136845 </v>
   <v>      -0.02770282      -0.04933618       0.14847622 </v>
   <v>      -0.26488712      -0.42183117       0.21539859 </v>
   <v>      -0.38376307      -0.10145515       0.05201390 </v>
   <v>      -0.42962383      -0.30619351       0.04706389 </v>
   <v>      -0.06634916      -0.41860860       0.28685537 </v>
   <v>      -0.20754344       0.07406957       0.06089393 </v>
   <v>      -0.40044539      -0.27091017       0.29947778 </v>
   <v>       0.10995940      -0.26952663       0.23155464 </v>
   <v>      -0.38456796      -0.19978938      -0.15088490 </v>
   <v>       0.11494868      -0.38645037       0.01466046 </v>
   <v>      -0.03380809      -0.38146515      -0.18377195 </v>
   <v>      -0.35737578       0.48593721       0.02149855 </v>
   <v>       0.01358307      -0.00452171      -0.12313289 </v>
   <v>      -0.20158150      -0.23227209      -0.27222223 </v>
   <v>      -0.44792029      -0.03667206       0.27800247 </v>
   <v>      -0.10269298       0.07858862       0.31329042 </v>
   <v>      -0.25722258      -0.30137055       0.47950947 </v>
   <v>       0.22732836      -0.18382089       0.05244054 </v>
   <v>       0.02224729      -0.16287800      -0.26221382 </v>
   <v>      -0.49784500      -0.45174569       0.21516769 </v>
   <v>       0.18441881      -0.07373314       0.23266514 </v>
   <v>      -0.32879747      -0.09484770       0.45739250 </v>
   <v>      -0.17767478       0.35786708       0.01113364 </v>
   <v>      -0.37297193      -0.44386049      -0.20973232 </v>
   <v>      -0.19290231       0.45066503      -0.19718993 </v>
   <v>       0.40805899      -0.18619665       0.19419896 </v>
   <v>       0.01868479       0.37975347       0.12102311 </v>
   <v>      -0.36367963       0.07702451      -0.15160821 </v>
   <v>      -0.32253870       0.38057808       0.22490928 </v>
   <v>       0.41756319      -0.15558609      -0.05134256 </v>
   <v>       0.48913563       0.05332340       0.07311128 </v>
   <v>      -0.01511068       0.17892245       0.03466738 </v>
   <v>       0.14366540       0.49791660       0.24515740 </v>
   <v>      -0.36083096       0.16221830       0.19920850 </v>
   <v>      -0.17571999       0.01744195      -0.28482106 </v>
   <v>      -0.12700940      -0.03697521       0.49894245 </v>
   <v>       0.03904048       0.40663790      -0.08677299 </v>
   <v>      -0.01055135      -0.19784108      -0.48132366 </v>
   <v>       0.18205724       0.05065059       0.02296473 </v>
   <v>       0.19910225      -0.29528115      -0.18769507 </v>
   <v>       0.09307416      -0.42207551       0.43270363 </v>
   <v>       0.09975562       0.13173672       0.23029653 </v>
   <v>       0.08024170      -0.00679452       0.43113047 </v>
   <v>      -0.19296706       0.41726086       0.41665317 </v>
   <v>      -0.37567632      -0.05721396      -0.32634070 </v>
   <v>       0.19618356      -0.20756706       0.43168660 </v>
   <v>       0.34223303      -0.35572355       0.04290265 </v>
   <v>      -0.21091202       0.21776262      -0.14119162 </v>
   <v>      -0.13692714       0.25767828       0.22455900 </v>
   <v>       0.49963330      -0.42092773       0.43685138 </v>
   <v>       0.45080803       0.46453632      -0.07660804 </v>
   <v>      -0.10827946      -0.41171381      -0.42956988 </v>
   <v>      -0.30652446       0.14102361       0.42735735 </v>
   <v>       0.40463844      -0.35088901      -0.18638824 </v>
   <v>       0.43249376      -0.19917540       0.43067617 </v>
   <v>       0.25096502      -0.06709775      -0.17295046 </v>
   <v>      -0.38347730       0.24660919      -0.00359780 </v>
   <v>      -0.41700772      -0.28322749      -0.38302088 </v>
   <v>       0.09979749      -0.35609575      -0.36285266 </v>
   <v>       0.04240005       0.35504001       0.37788660 </v>
   <v>       0.32273860      -0.33743032       0.32244627 </v>
   <v>      -0.02578080       0.21556211      -0.22547919 </v>
   <v>       0.42625474      -0.13799750      -0.30198400 </v>
   <v>      -0.40226569       0.36223356       0.41947468 </v>
   <v>       0.29427314       0.44015620       0.07345165 </v>
   <v>       0.49958472       0.01985801       0.49195882 </v>
   <v>       0.47776403       0.32142227       0.17841348 </v>
   <v>       0.41659646       0.06890247      -0.18719160 </v>
   <v>       0.18308574       0.13636684      -0.18528689 </v>
   <v>      -0.34765256      -0.49846588      -0.42044576 </v>
   <v>       0.24926925       0.46385822      -0.17463187 </v>
   <v>      -0.11168085       0.17893081      -0.47890259 </v>
   <v>       0.33539121       0.10138613       0.19453492 </v>
   <v>       0.04878173       0.08674512      -0.37170444 </v>
   <v>       0.29951246      -0.00840502       0.40474070 </v>
   <v>      -0.41771521       0.30795672      -0.22046764 </v>
   <v>       0.18344635       0.26685450      -0.01897806 </v>
   <v>      -0.36630200       0.14079510      -0.37101481 </v>
   <v>       0.19370413      -0.08639794      -0.39270844 </v>
   <v>       0.43893087       0.19819476       0.36456129 </v>
   <v>       0.23549549       0.29906055       0.24593456 </v>
   <v>       0.00579220       0.37888725      -0.38486496 </v>
   <v>       0.38233207       0.22400821      -0.00985392 </v>
   <v>      -0.23067422       0.31380555      -0.36446384 </v>
   <v>       0.18340969       0.19276130       0.43854909 </v>
   <v>       0.41597938       0.49836629      -0.35500311 </v>
   <v>       0.31051020       0.44501211       0.42066696 </v>
   <v>       0.20390766       0.48821035      -0.39755691 </v>
   <v>       0.32394072      -0.29309482      -0.39831640 </v>
   <v>       0.37067009       0.30240307      -0.21284151 </v>
   <v>       0.17450904       0.27078829      -0.35069695 </v>
   <v>       0.32129065       0.09288911      -0.37812645 </v>
   <v>       0.45598415       0.28635304      -0.43190984 </v>
  </varray>
 </structure>
 <varray name="primitive_index" >
  <v type="int" >        1 </v>
  <v type="int" >       90 </v>
  <v type="int" >       41 </v>
  <v type="int" >       36 </v>
  <v type="int" >        2 </v>
  <v type="int" >       95 </v>
  <v type="int" >       79 </v>
  <v type="int" >       43 </v>
  <v type="int" >       38 </v>
  <v type="int" >       61 </v>
  <v type="int" >       21 </v>
  <v type="int" >       67 </v>
  <v type="int" >       50 </v>
  <v type="int" >       20 </v>
  <v type="int" >       64 </v>
  <v type="int" >        6 </v>
  <v type="int" >       59 </v>
  <v type="int" >       54 </v>
  <v type="int" >       75 </v>
  <v type="int" >       10 </v>
  <v type="int" >       70 </v>
  <v type="int" >        9 </v>
  <v type="int" >       25 </v>
  <v type="int" >       58 </v>
  <v type="int" >       33 </v>
  <v type="int" >       56 </v>
  <v type="int" >        8 </v>
  <v type="int" >       66 </v>
  <v type="int" >       31 </v>
  <v type="int" >       94 </v>
  <v type="int" >       80 </v>
  <v type="int" >       69 </v>
  <v type="int" >       37 </v>
  <v type="int" >       26 </v>
  <v type="int" >       30 </v>
  <v type="int" >       92 </v>
  <v type="int" >       77 </v>
  <v type="int" >       40 </v>
  <v type="int" >       96 </v>
  <v type="int" >       52 </v>
  <v type="int" >       86 </v>
  <v type="int" >       83 </v>
  <v type="int" >       88 </v>
  <v type="int" >       97 </v>
  <v type="int" >       98 </v>
  <v type="int" >       27 </v>
  <v type="int" >       73 </v>
  <v type="int" >       34 </v>
  <v type="int" >       39 </v>
  <v type="int" >       16 </v>
  <v type="int" >       12 </v>
  <v type="int" >       60 </v>
  <v type="int" >       82 </v>
  <v type="int" >       87 </v>
  <v type="int" >        4 </v>
  <v type="int" >       47 </v>
  <v type="int" >        7 </v>
  <v type="int" >       65 </v>
  <v type="int" >       44 </v>
  <v type="int" >        3 </v>
  <v type="int" >       89 </v>
  <v type="int" >       76 </v>
  <v type="int" >       53 </v>
  <v type="int" >       23 </v>
  <v type="int" >       74 </v>
  <v type="int" >       57 </v>
  <v type="int" >       28 </v>
  <v type="int" >       24 </v>
  <v type="int" >       13 </v>
  <v type="int" >       93 </v>
  <v type="int" >       81 </v>
  <v type="int" >       29 </v>
  <v type="int" >       91 </v>
  <v type="int" >       55 </v>
  <v type="int" >       49 </v>
  <v type="int" >       32 </v>
  <v type="int" >       63 </v>
  <v type="int" >       72 </v>
  <v type="int" >       15 </v>
  <v type="int" >      100 </v>
  <v type="int" >       17 </v>
  <v type="int" >        5 </v>
  <v type="int" >       71 </v>
  <v type="int" >       18 </v>
  <v type="int" >       48 </v>
  <v type="int" >       99 </v>
  <v type="int" >       19 </v>
  <v type="int" >       35 </v>
  <v type="int" >       22 </v>
  <v type="int" >       85 </v>
  <v type="int" >       14 </v>
  <v type="int" >       11 </v>
  <v type="int" >       42 </v>
  <v type="int" >       78 </v>
  <v type="int" >       46 </v>
  <v type="int" >       84 </v>
  <v type="int" >       51 </v>
  <v type="int" >       68 </v>
  <v type="int" >       62 </v>
  <v type="int" >       45 </v>
 </varray>
 <kpoints>
  <generation param="Gamma">
   <v type="int" name="divisions">       1        1        1 </v>
   <v name="usershift">      0.00000000       0.00000000       0.00000000 </v>
   <v name="genvec1">      1.00000000       0.00000000       0.00000000 </v>
   <v name="genvec2">      0.00000000       1.00000000       0.00000000 </v>
   <v name="genvec3">      0.00000000       0.00000000       1.00000000 </v>
   <v name="shift">      0.00000000       0.00000000       0.00000000 </v>
  </generation>
  <varray name="kpointlist" >
   <v>       0.00000000       0.00000000       0.00000000 </v>
  </varray>
  <varray name="weights" >
   <v>       1.00000000 </v>
  </varray>
 </kpoints>
 <parameters>
  <separator name="general" >
   <i type="string" name="SYSTEM">unknown system</i>
   <i type="logical" name="LCOMPAT"> F  </i>
  </separator>
  <separator name="electronic" >
   <i type="string" name="PREC">normal</i>
   <i name="ENMAX">    245.34500000</i>
   <i name="ENAUG">    322.06900000</i>
   <i name="EDIFF">      0.00001000</i>
   <i type="int" name="IALGO">    68</i>
   <i type="int" name="IWAVPR">    12</i>
   <i type="int" name="NBANDS">   304</i>
   <i name="NELECT">    400.00000000</i>
   <i type="int" name="TURBO">     0</i>
   <i type="int" name="IRESTART">     0</i>
   <i type="int" name="NREBOOT">     0</i>
   <i type="int" name="NMIN">     0</i>
   <i name="EREF">      0.00000000</i>
   <separator name="electronic smearing" >
    <i type="int" name="ISMEAR">     0</i>
    <i name="SIGMA">      0.05000000</i>
    <i name="KSPACING">      0.50000000</i>
    <i type="logical" name="KGAMMA"> T  </i>
   </separator>
   <separator name="electronic projectors" >
    <i type="logical" name="LREAL"> T  </i>
    <v name="ROPT">     -0.00050000</v>
    <i type="int" name="LMAXPAW">  -100</i>
    <i type="int" name="LMAXMIX">     2</i>
    <i type="logical" name="NLSPLINE"> F  </i>
   </separator>
   <separator name="electronic startup" >
    <i type="int" name="ISTART">     0</i>
    <i type="int" name="ICHARG">     2</i>
    <i type="int" name="INIWAV">     1</i>
   </separator>
   <separator name="electronic spin" >
    <i type="int" name="ISPIN">     2</i>
    <i type="logical" name="LNONCOLLINEAR"> F  </i>
    <v name="MAGMOM">      1.00000000      1.00000000      1.00000000      1.00000000      1.00000000      1.00000000      1.00000000      1.00000000      1.00000000      1.00000000      1.00000000      1.00000000      1.00000000      1.00000000      1.00000000      1.00000000      1.00000000      1.00000000      1.00000000      1.00000000
      1.00000000      1.00000000      1.00000000      1.00000000      1.00000000      1.00000000      1.00000000      1.00000000      1.00000000      1.00000000      1.00000000      1.00000000      1.00000000      1.00000000      1.00000000      1.00000000      1.00000000      1.00000000      1.00000000      1.00000000
      1.00000000      1.00000000      1.00000000      1.00000000      1.00000000      1.00000000      1.00000000      1.00000000      1.00000000      1.00000000      1.00000000      1.00000000      1.00000000      1.00000000      1.00000000      1.00000000      1.00000000      1.00000000      1.00000000      1.00000000
      1.00000000      1.00000000      1.00000000      1.00000000      1.00000000      1.00000000      1.00000000      1.00000000      1.00000000      1.00000000      1.00000000      1.00000000      1.00000000      1.00000000      1.00000000      1.00000000      1.00000000      1.00000000      1.00000000      1.00000000
      1.00000000      1.00000000      1.00000000      1.00000000      1.00000000      1.00000000      1.00000000      1.00000000      1.00000000      1.00000000      1.00000000      1.00000000      1.00000000      1.00000000      1.00000000      1.00000000      1.00000000      1.00000000      1.00000000      1.00000000
</v>
    <i name="NUPDOWN">     -1.00000000</i>
    <i type="logical" name="LSORBIT"> F  </i>
    <v name="SAXIS">      0.00000000      0.00000000      1.00000000</v>
    <i type="logical" name="LSPIRAL"> F  </i>
    <v name="QSPIRAL">      0.00000000      0.00000000      0.00000000</v>
    <i type="logical" name="LZEROZ"> F  </i>
   </separator>
   <separator name="electronic exchange-correlation" >
    <i type="logical" name="LASPH"> F  </i>
    <i type="logical" name="LMETAGGA"> F  </i>
   </separator>
   <separator name="electronic convergence" >
    <i type="int" name="NELM">    60</i>
    <i type="int" name="NELMDL">     0</i>
    <i type="int" name="NELMIN">     4</i>
    <i name="ENINI">    245.34500000</i>
    <separator name="electronic convergence detail" >
     <i type="logical" name="LDIAG"> T  </i>
     <i type="logical" name="LSUBROT"> F  </i>
     <i name="WEIMIN">      0.00100000</i>
     <i name="EBREAK">      0.00000001</i>
     <i name="DEPER">      0.30000000</i>
     <i type="int" name="NRMM">     4</i>
     <i name="TIME">      0.40000000</i>
    </separator>
   </separator>
   <separator name="electronic mixer" >
    <i name="AMIX">      0.40000000</i>
    <i name="BMIX">      1.00000000</i>
    <i name="AMIN">      0.10000000</i>
    <i name="AMIX_MAG">      1.60000000</i>
    <i name="BMIX_MAG">      1.00000000</i>
    <separator name="electronic mixer details" >
     <i type="int" name="IMIX">     4</i>
     <i type="logical" name="MIXFIRST"> F  </i>
     <i type="int" name="MAXMIX">   -45</i>
     <i name="WC">    100.00000000</i>
     <i type="int" name="INIMIX">     1</i>
     <i type="int" name="MIXPRE">     1</i>
     <i type="int" name="MREMOVE">     5</i>
    </separator>
   </separator>
   <separator name="electronic dipolcorrection" >
    <i type="logical" name="LDIPOL"> F  </i>
    <i type="logical" name="LMONO"> F  </i>
    <i type="int" name="IDIPOL">     0</i>
    <i name="EPSILON">      1.00000000</i>
    <v name="DIPOL">   -100.00000000   -100.00000000   -100.00000000</v>
    <i name="EFIELD">      0.00000000</i>
   </separator>
  </separator>
  <separator name="grids" >
   <i type="int" name="NGX">    40</i>
   <i type="int" name="NGY">    40</i>
   <i type="int" name="NGZ">    40</i>
   <i type="int" name="NGXF">    80</i>
   <i type="int" name="NGYF">    80</i>
   <i type="int" name="NGZF">    80</i>
   <i type="logical" name="ADDGRID"> F  </i>
  </separator>
  <separator name="ionic" >
   <i type="int" name="NSW">   100</i>
   <i type="int" name="IBRION">     0</i>
   <i type="int" name="MDALGO">     2</i>
   <i type="int" name="ISIF">     2</i>
   <i name="PSTRESS">      0.00000000</i>
   <i name="EDIFFG">      0.00010000</i>
   <i type="int" name="NFREE">     0</i>
   <i name="POTIM">      3.00000000</i>
   <i name="SMASS">      1.00000000</i>
   <i name="SCALEE">      1.00000000</i>
  </separator>
  <separator name="ionic md" >
   <i name="TEBEG">   2000.00000000</i>
   <i name="TEEND">   2000.00000000</i>
   <i type="int" name="NBLOCK">     1</i>
   <i type="int" name="KBLOCK">   100</i>
   <i type="int" name="NPACO">   256</i>
   <i name="APACO">     16.00000000</i>
  </separator>
  <separator name="symmetry" >
   <i type="int" name="ISYM">     0</i>
   <i name="SYMPREC">      0.00001000</i>
  </separator>
  <separator name="dos" >
   <i type="int" name="LORBIT">     0</i>
   <v name="RWIGS">     -1.00000000</v>
   <i type="int" name="NEDOS">   301</i>
   <i name="EMIN">     10.00000000</i>
   <i name="EMAX">    -10.00000000</i>
   <i name="EFERMI">      0.00000000</i>
  </separator>
  <separator name="writing" >
   <i type="int" name="NWRITE">     2</i>
   <i type="logical" name="LWAVE"> F  </i>
   <i type="logical" name="LDOWNSAMPLE"> F  </i>
   <i type="logical" name="LCHARG"> F  </i>
   <i type="logical" name="LPARD"> F  </i>
   <i type="logical" name="LVTOT"> F  </i>
   <i type="logical" name="LVHAR"> F  </i>
   <i type="logical" name="LELF"> F  </i>
   <i type="logical" name="LOPTICS"> F  </i>
   <v name="STM">      0.00000000      0.00000000      0.00000000      0.00000000      0.00000000      0.00000000      0.00000000</v>
  </separator>
  <separator name="performance" >
   <i type="int" name="NPAR">    16</i>
   <i type="int" name="NSIM">     4</i>
   <i type="int" name="NBLK">    -1</i>
   <i type="logical" name="LPLANE"> T  </i>
   <i type="logical" name="LSCALAPACK"> T  </i>
   <i type="logical" name="LSCAAWARE"> F  </i>
   <i type="logical" name="LSCALU"> F  </i>
   <i type="logical" name="LASYNC"> F  </i>
   <i type="logical" name="LORBITALREAL"> F  </i>
  </separator>
  <separator name="miscellaneous" >
   <i type="int" name="IDIOT">     3</i>
   <i type="int" name="ISPECIAL">     0</i>
   <i type="logical" name="LMUSIC"> F  </i>
   <v name="POMASS">     28.08500000</v>
   <v name="DARWINR">      0.00000000</v>
   <v name="DARWINV">      1.00000000</v>
   <i type="logical" name="LCORR"> T  </i>
  </separator>
  <i type="logical" name="GGA_COMPAT"> T  </i>
  <i type="logical" name="LBERRY"> F  </i>
  <i type="int" name="ICORELEVEL">     0</i>
  <i type="logical" name="LDAU"> F  </i>
  <i type="int" name="I_CONSTRAINED_M">     0</i>
  <separator name="electronic exchange-correlation" >
   <i type="string" name="GGA">--</i>
   <i type="int" name="VOSKOWN">     0</i>
   <i type="logical" name="LHFCALC"> F  </i>
   <i type="string" name="PRECFOCK"></i>
   <i type="logical" name="LSYMGRAD"> F  </i>
   <i type="logical" name="LHFONE"> F  </i>
   <i type="logical" name="LRHFCALC"> F  </i>
   <i type="logical" name="LTHOMAS"> F  </i>
   <i type="logical" name="LMODELHF"> F  </i>
   <i name="ENCUT4O">     -1.00000000</i>
   <i type="int" name="EXXOEP">     0</i>
   <i type="int" name="FOURORBIT">     0</i>
   <i name="AEXX">      0.00000000</i>
   <i name="HFALPHA">      0.00000000</i>
   <i name="MCALPHA">      0.00000000</i>
   <i name="ALDAX">      1.00000000</i>
   <i name="AGGAX">      1.00000000</i>
   <i name="ALDAC">      1.00000000</i>
   <i name="AGGAC">      1.00000000</i>
   <i type="int" name="NKREDX">     1</i>
   <i type="int" name="NKREDY">     1</i>
   <i type="int" name="NKREDZ">     1</i>
   <i type="logical" name="SHIFTRED"> F  </i>
   <i type="logical" name="ODDONLY"> F  </i>
   <i type="logical" name="EVENONLY"> F  </i>
   <i type="int" name="LMAXFOCK">     0</i>
   <i type="int" name="NMAXFOCKAE">     0</i>
   <i type="logical" name="LFOCKAEDFT"> F  </i>
   <i name="HFSCREEN">      0.00000000</i>
   <i name="HFSCREENC">      0.00000000</i>
   <i type="int" name="NBANDSGWLOW">     0</i>
  </separator>
  <separator name="vdW DFT" >
   <i type="logical" name="LUSE_VDW"> F  </i>
   <i name="Zab_VDW">     -0.84910000</i>
   <i name="PARAM1">      0.12340000</i>
   <i name="PARAM2">      1.00000000</i>
   <i name="PARAM3">      0.00000000</i>
  </separator>
  <separator name="model GW" >
   <i type="int" name="MODEL_GW">     0</i>
   <i name="MODEL_EPS0">      6.38879919</i>
   <i name="MODEL_ALPHA">      1.00000000</i>
  </separator>
  <separator name="linear response parameters" >
   <i type="logical" name="LEPSILON"> F  </i>
   <i type="logical" name="LRPA"> F  </i>
   <i type="logical" name="LNABLA"> F  </i>
   <i type="logical" name="LVEL"> F  </i>
   <i type="int" name="KINTER">     0</i>
   <i name="CSHIFT">      0.10000000</i>
   <i name="OMEGAMAX">     -1.00000000</i>
   <i name="DEG_THRESHOLD">      0.00200000</i>
   <i name="RTIME">     -0.10000000</i>
   <i name="WPLASMAI">      0.00000000</i>
   <v name="DFIELD">      0.00000000      0.00000000      0.00000000</v>
   <v name="WPLASMA">      0.00000000      0.00000000      0.00000000      0.00000000      0.00000000      0.00000000      0.00000000      0.00000000      0.00000000</v>
  </separator>
  <separator name="orbital magnetization" >
   <i type="logical" name="NUCIND"> F  </i>
   <v name="MAGPOS">      0.00000000      0.00000000      0.00000000</v>
   <i type="logical" name="LNICSALL"> T  </i>
   <i type="logical" name="ORBITALMAG"> F  </i>
   <i type="logical" name="LMAGBLOCH"> F  </i>
   <i type="logical" name="LCHIMAG"> F  </i>
   <i type="logical" name="LGAUGE"> T  </i>
   <i type="int" name="MAGATOM">     0</i>
   <v name="MAGDIPOL">      0.00000000      0.00000000      0.00000000</v>
   <v name="AVECCONST">      0.00000000      0.00000000      0.00000000</v>
  </separator>
  <separator name="response functions" >
   <i type="logical" name="LADDER"> F  </i>
   <i type="logical" name="LRPAFORCE"> F  </i>
   <i type="logical" name="LFXC"> F  </i>
   <i type="logical" name="LHARTREE"> T  </i>
   <i type="int" name="IBSE">     0</i>
   <v type="int" name="KPOINT">    -1     0     0     0</v>
   <i type="logical" name="LTCTE"> F  </i>
   <i type="logical" name="LTETE"> F  </i>
   <i type="logical" name="LTRIPLET"> F  </i>
   <i type="logical" name="LFXCEPS"> F  </i>
   <i type="logical" name="LFXHEG"> F  </i>
   <i type="int" name="NATURALO">     2</i>
   <i type="logical" name="L2ORDER"> F  </i>
   <i type="logical" name="LMP2LT"> F  </i>
   <i type="logical" name="LUSEW"> F  </i>
   <i name="ENCUTGW">     -2.00000000</i>
   <i name="ENCUTGWSOFT">     -2.00000000</i>
   <i name="ENCUTLF">     -1.00000000</i>
   <i type="int" name="LMAXMP2">    -1</i>
   <i name="SCISSOR">      0.00000000</i>
   <i type="int" name="NOMEGA">     0</i>
   <i type="int" name="NOMEGAR">     0</i>
   <i type="int" name="NBANDSGW">    -1</i>
   <i type="int" name="NBANDSO">    -1</i>
   <i type="int" name="NBANDSV">    -1</i>
   <i type="int" name="NELM">    60</i>
   <i type="int" name="NELMHF">     1</i>
   <i type="int" name="DIM">     3</i>
   <i type="int" name="ANTIRES">     0</i>
   <i name="OMEGAMAX">    -30.00000000</i>
   <i name="OMEGAMIN">    -30.00000000</i>
   <i name="OMEGATL">   -200.00000000</i>
   <i type="int" name="OMEGAGRID">   140</i>
   <i name="CSHIFT">     -0.10000000</i>
   <i type="logical" name="SELFENERGY"> F  </i>
   <i type="logical" name="LSPECTRAL"> F  </i>
   <i type="logical" name="LSPECTRALGW"> F  </i>
   <i type="logical" name="LSINGLES"> F  </i>
   <i type="logical" name="LFERMIGW"> F  </i>
   <i type="logical" name="ODDONLYGW"> F  </i>
   <i type="logical" name="EVENONLYGW"> F  </i>
   <i type="int" name="NKREDLFX">     1</i>
   <i type="int" name="NKREDLFY">     1</i>
   <i type="int" name="NKREDLFZ">     1</i>
   <i type="int" name="MAXMEM">  2800</i>
   <i type="int" name="TELESCOPE">     0</i>
   <i type="int" name="TAUPAR">     1</i>
   <i type="int" name="OMEGAPAR">    -1</i>
   <i name="LAMBDA">      1.00000000</i>
  </separator>
  <separator name="External order field" >
   <i name="OFIELD_KAPPA">      0.00000000</i>
   <v name="OFIELD_K">      0.00000000      0.00000000      0.00000000</v>
   <i name="OFIELD_Q6_NEAR">      0.00000000</i>
   <i name="OFIELD_Q6_FAR">      0.00000000</i>
   <i name="OFIELD_A">      0.00000000</i>
  </separator>
 </parameters>
 <atominfo>
  <atoms>     100 </atoms>
  <types>       1 </types>
  <array name="atoms" >
   <dimension dim="1">ion</dimension>
   <field type="string">element</field>
   <field type="int">atomtype</field>
   <set>
    <rc><c>Si</c><c>   1</c></rc>
    <rc><c>Si</c><c>   1</c></rc>
    <rc><c>Si</c><c>   1</c></rc>
    <rc><c>Si</c><c>   1</c></rc>
    <rc><c>Si</c><c>   1</c></rc>
    <rc><c>Si</c><c>   1</c></rc>
    <rc><c>Si</c><c>   1</c></rc>
    <rc><c>Si</c><c>   1</c></rc>
    <rc><c>Si</c><c>   1</c></rc>
    <rc><c>Si</c><c>   1</c></rc>
    <rc><c>Si</c><c>   1</c></rc>
    <rc><c>Si</c><c>   1</c></rc>
    <rc><c>Si</c><c>   1</c></rc>
    <rc><c>Si</c><c>   1</c></rc>
    <rc><c>Si</c><c>   1</c></rc>
    <rc><c>Si</c><c>   1</c></rc>
    <rc><c>Si</c><c>   1</c></rc>
    <rc><c>Si</c><c>   1</c></rc>
    <rc><c>Si</c><c>   1</c></rc>
    <rc><c>Si</c><c>   1</c></rc>
    <rc><c>Si</c><c>   1</c></rc>
    <rc><c>Si</c><c>   1</c></rc>
    <rc><c>Si</c><c>   1</c></rc>
    <rc><c>Si</c><c>   1</c></rc>
    <rc><c>Si</c><c>   1</c></rc>
    <rc><c>Si</c><c>   1</c></rc>
    <rc><c>Si</c><c>   1</c></rc>
    <rc><c>Si</c><c>   1</c></rc>
    <rc><c>Si</c><c>   1</c></rc>
    <rc><c>Si</c><c>   1</c></rc>
    <rc><c>Si</c><c>   1</c></rc>
    <rc><c>Si</c><c>   1</c></rc>
    <rc><c>Si</c><c>   1</c></rc>
    <rc><c>Si</c><c>   1</c></rc>
    <rc><c>Si</c><c>   1</c></rc>
    <rc><c>Si</c><c>   1</c></rc>
    <rc><c>Si</c><c>   1</c></rc>
    <rc><c>Si</c><c>   1</c></rc>
    <rc><c>Si</c><c>   1</c></rc>
    <rc><c>Si</c><c>   1</c></rc>
    <rc><c>Si</c><c>   1</c></rc>
    <rc><c>Si</c><c>   1</c></rc>
    <rc><c>Si</c><c>   1</c></rc>
    <rc><c>Si</c><c>   1</c></rc>
    <rc><c>Si</c><c>   1</c></rc>
    <rc><c>Si</c><c>   1</c></rc>
    <rc><c>Si</c><c>   1</c></rc>
    <rc><c>Si</c><c>   1</c></rc>
    <rc><c>Si</c><c>   1</c></rc>
    <rc><c>Si</c><c>   1</c></rc>
    <rc><c>Si</c><c>   1</c></rc>
    <rc><c>Si</c><c>   1</c></rc>
    <rc><c>Si</c><c>   1</c></rc>
    <rc><c>Si</c><c>   1</c></rc>
    <rc><c>Si</c><c>   1</c></rc>
    <rc><c>Si</c><c>   1</c></rc>
    <rc><c>Si</c><c>   1</c></rc>
    <rc><c>Si</c><c>   1</c></rc>
    <rc><c>Si</c><c>   1</c></rc>
    <rc><c>Si</c><c>   1</c></rc>
    <rc><c>Si</c><c>   1</c></rc>
    <rc><c>Si</c><c>   1</c></rc>
    <rc><c>Si</c><c>   1</c></rc>
    <rc><c>Si</c><c>   1</c></rc>
    <rc><c>Si</c><c>   1</c></rc>
    <rc><c>Si</c><c>   1</c></rc>
    <rc><c>Si</c><c>   1</c></rc>
    <rc><c>Si</c><c>   1</c></rc>
    <rc><c>Si</c><c>   1</c></rc>
    <rc><c>Si</c><c>   1</c></rc>
    <rc><c>Si</c><c>   1</c></rc>
    <rc><c>Si</c><c>   1</c></rc>
    <rc><c>Si</c><c>   1</c></rc>
    <rc><c>Si</c><c>   1</c></rc>
    <rc><c>Si</c><c>   1</c></rc>
    <rc><c>Si</c><c>   1</c></rc>
    <rc><c>Si</c><c>   1</c></rc>
    <rc><c>Si</c><c>   1</c></rc>
    <rc><c>Si</c><c>   1</c></rc>
    <rc><c>Si</c><c>   1</c></rc>
    <rc><c>Si</c><c>   1</c></rc>
    <rc><c>Si</c><c>   1</c></rc>
    <rc><c>Si</c><c>   1</c></rc>
    <rc><c>Si</c><c>   1</c></rc>
    <rc><c>Si</c><c>   1</c></rc>
    <rc><c>Si</c><c>   1</c></rc>
    <rc><c>Si</c><c>   1</c></rc>
    <rc><c>Si</c><c>   1</c></rc>
    <rc><c>Si</c><c>   1</c></rc>
    <rc><c>Si</c><c>   1</c></rc>
    <rc><c>Si</c><c>   1</c></rc>
    <rc><c>Si</c><c>   1</c></rc>
    <rc><c>Si</c><c>   1</c></rc>
    <rc><c>Si</c><c>   1</c></rc>
    <rc><c>Si</c><c>   1</c></rc>
    <rc><c>Si</c><c>   1</c></rc>
    <rc><c>Si</c><c>   1</c></rc>
    <rc><c>Si</c><c>   1</c></rc>
    <rc><c>Si</c><c>   1</c></rc>
    <rc><c>Si</c><c>   1</c></rc>
   </set>
  </array>
  <array name="atomtypes" >
   <dimension dim="1">type</dimension>
   <field type="int">atomspertype</field>
   <field type="string">element</field>
   <field>mass</field>
   <field>valence</field>
   <field type="string">pseudopotential</field>
   <set>
    <rc><c> 100</c><c>Si</c><c>     28.08500000</c><c>      4.00000000</c><c>  PAW_PBE Si 05Jan2001                  </c></rc>
   </set>
  </array>
 </atominfo>
 <structure name="initialpos" >
  <crystal>
   <varray name="basis" >
    <v>      10.21149500       0.00000000       0.00000000 </v>
    <v>       0.00000000      10.21149500       0.00000000 </v>
    <v>       0.00000000       0.00000000      10.21149500 </v>
   </varray>
   <i name="volume">   1064.79986425 </i>
   <varray name="rec_basis" >
    <v>       0.09792885       0.00000000       0.00000000 </v>
    <v>       0.00000000       0.09792885       0.00000000 </v>
    <v>       0.00000000       0.00000000       0.09792885 </v>
   </varray>
  </crystal>
  <varray name="positions" >
   <v>       0.82678706       0.76971749       0.09252905 </v>
   <v>       0.82127349       0.89755911       0.90501962 </v>
   <v>       0.69347554       0.14102361       0.42735735 </v>
   <v>       0.78908798       0.21776262       0.85880838 </v>
   <v>       0.29951246       0.99159498       0.40474070 </v>
   <v>       0.61543204       0.80021062       0.84911510 </v>
   <v>       0.49963330       0.57907227       0.43685138 </v>
   <v>       0.50215500       0.54825431       0.21516769 </v>
   <v>       0.55207971       0.96332794       0.27800247 </v>
   <v>       0.01358307       0.99547829       0.87686711 </v>
   <v>       0.18340969       0.19276130       0.43854909 </v>
   <v>       0.80703294       0.41726086       0.41665317 </v>
   <v>       0.97421920       0.21556211       0.77452081 </v>
   <v>       0.76932578       0.31380555       0.63553616 </v>
   <v>       0.88831915       0.17893081       0.52109741 </v>
   <v>       0.08024170       0.99320548       0.43113047 </v>
   <v>       0.04878172       0.08674512       0.62829556 </v>
   <v>       0.18344635       0.26685450       0.98102194 </v>
   <v>       0.43893087       0.19819476       0.36456129 </v>
   <v>       0.59955461       0.72908983       0.29947778 </v>
   <v>       0.57037617       0.69380649       0.04706389 </v>
   <v>       0.00579220       0.37888725       0.61513504 </v>
   <v>       0.61652270       0.24660919       0.99640220 </v>
   <v>       0.32273860       0.66256968       0.32244627 </v>
   <v>       0.89730702       0.07858862       0.31329042 </v>
   <v>       0.01868479       0.37975347       0.12102311 </v>
   <v>       0.18205724       0.05065059       0.02296473 </v>
   <v>       0.04240005       0.35504001       0.37788660 </v>
   <v>       0.29427314       0.44015620       0.07345165 </v>
   <v>       0.63632037       0.07702451       0.84839179 </v>
   <v>       0.67120253       0.90515230       0.45739250 </v>
   <v>       0.18308574       0.13636684       0.81471311 </v>
   <v>       0.22732836       0.81617911       0.05244054 </v>
   <v>       0.09307416       0.57792449       0.43270363 </v>
   <v>       0.23549549       0.29906055       0.24593456 </v>
   <v>       0.02136894       0.79880168       0.97956428 </v>
   <v>       0.40805899       0.81380335       0.19419896 </v>
   <v>       0.73511288       0.57816883       0.21539859 </v>
   <v>       0.09975562       0.13173672       0.23029653 </v>
   <v>       0.48913563       0.05332340       0.07311128 </v>
   <v>       0.77937749       0.65254332       0.90568999 </v>
   <v>       0.41597938       0.49836629       0.64499689 </v>
   <v>       0.97229718       0.95066382       0.14847622 </v>
   <v>       0.89172054       0.58828619       0.57043012 </v>
   <v>       0.45598415       0.28635304       0.56809016 </v>
   <v>       0.20390766       0.48821035       0.60244309 </v>
   <v>       0.86307286       0.25767828       0.22455900 </v>
   <v>       0.63369800       0.14079510       0.62898519 </v>
   <v>       0.41659646       0.06890247       0.81280840 </v>
   <v>       0.79245656       0.07406957       0.06089393 </v>
   <v>       0.37067009       0.30240307       0.78715849 </v>
   <v>       0.14366540       0.49791660       0.24515740 </v>
   <v>       0.25096502       0.93290225       0.82704954 </v>
   <v>       0.96619191       0.61853485       0.81622805 </v>
   <v>       0.47776403       0.32142227       0.17841348 </v>
   <v>       0.02224729       0.83712200       0.73778618 </v>
   <v>       0.09979749       0.64390425       0.63714734 </v>
   <v>       0.74277742       0.69862945       0.47950947 </v>
   <v>       0.11494868       0.61354963       0.01466046 </v>
   <v>       0.62432368       0.94278604       0.67365930 </v>
   <v>       0.61623693       0.89854485       0.05201390 </v>
   <v>       0.32129065       0.09288911       0.62187355 </v>
   <v>       0.65234744       0.50153412       0.57955424 </v>
   <v>       0.10995940       0.73047337       0.23155464 </v>
   <v>       0.45080803       0.46453632       0.92339196 </v>
   <v>       0.18441881       0.92626686       0.23266514 </v>
   <v>       0.93365084       0.58139140       0.28685537 </v>
   <v>       0.17450904       0.27078829       0.64930305 </v>
   <v>       0.80709769       0.45066503       0.80281007 </v>
   <v>       0.79841850       0.76772791       0.72777777 </v>
   <v>       0.58228479       0.30795672       0.77953236 </v>
   <v>       0.24926925       0.46385822       0.82536813 </v>
   <v>       0.19910225       0.70471885       0.81230493 </v>
   <v>       0.58299228       0.71677251       0.61697912 </v>
   <v>       0.64262422       0.48593721       0.02149855 </v>
   <v>       0.43249376       0.80082460       0.43067617 </v>
   <v>       0.41756319       0.84441391       0.94865744 </v>
   <v>       0.31051020       0.44501211       0.42066696 </v>
   <v>       0.90263025       0.55246141       0.06136845 </v>
   <v>       0.62702807       0.55613951       0.79026768 </v>
   <v>       0.59773431       0.36223356       0.41947468 </v>
   <v>       0.19618356       0.79243294       0.43168660 </v>
   <v>       0.82428001       0.01744195       0.71517894 </v>
   <v>       0.32394072       0.70690518       0.60168360 </v>
   <v>       0.38233207       0.22400821       0.99014608 </v>
   <v>       0.63916904       0.16221830       0.19920850 </v>
   <v>       0.34223303       0.64427645       0.04290265 </v>
   <v>       0.87299060       0.96302479       0.49894245 </v>
   <v>       0.40463844       0.64911099       0.81361176 </v>
   <v>       0.77068485       0.92356365       0.23944536 </v>
   <v>       0.49958472       0.01985801       0.49195882 </v>
   <v>       0.67746130       0.38057808       0.22490928 </v>
   <v>       0.42625474       0.86200250       0.69801600 </v>
   <v>       0.82232522       0.35786708       0.01113364 </v>
   <v>       0.90766447       0.78380485       0.30493007 </v>
   <v>       0.98488932       0.17892245       0.03466738 </v>
   <v>       0.03904048       0.40663790       0.91322701 </v>
   <v>       0.98944865       0.80215892       0.51867634 </v>
   <v>       0.19370413       0.91360206       0.60729156 </v>
   <v>       0.33539121       0.10138613       0.19453492 </v>
  </varray>
  <varray name="velocities" >
   <v>       0.00236592      -0.00125951      -0.00028315 </v>
   <v>       0.00263774      -0.00125967       0.00194487 </v>
   <v>      -0.00074587       0.00213549       0.00179518 </v>
   <v>      -0.00240960      -0.00441824       0.00271768 </v>
   <v>      -0.00369922       0.00260820       0.00045115 </v>
   <v>       0.00176394       0.00026331       0.00175095 </v>
   <v>       0.00429201      -0.00038629      -0.00017126 </v>
   <v>      -0.00173824      -0.00017237      -0.00269056 </v>
   <v>      -0.00000990       0.00130627      -0.00233208 </v>
   <v>       0.00050154      -0.00349746      -0.00086957 </v>
   <v>      -0.00113337       0.00414887      -0.00223022 </v>
   <v>      -0.00117849      -0.00050266       0.00096538 </v>
   <v>       0.00305612      -0.00273121      -0.00098679 </v>
   <v>      -0.00148439      -0.00366602       0.00357783 </v>
   <v>      -0.00160808      -0.00155209      -0.00307111 </v>
   <v>      -0.00317871      -0.00105412       0.00049548 </v>
   <v>      -0.00154918       0.00260845       0.00125949 </v>
   <v>      -0.00145688       0.00522019       0.00161357 </v>
   <v>      -0.00082181       0.00121164       0.00076334 </v>
   <v>      -0.00346008      -0.00064147      -0.00113385 </v>
   <v>      -0.00165325       0.00324872       0.00155878 </v>
   <v>       0.00188997      -0.00733831      -0.00185449 </v>
   <v>      -0.00164078      -0.00143164      -0.00151558 </v>
   <v>      -0.00236170       0.00078740       0.00515319 </v>
   <v>       0.00315337       0.00073956      -0.00352071 </v>
   <v>      -0.00010029       0.00203566      -0.00451960 </v>
   <v>       0.00420514       0.00161990      -0.00064301 </v>
   <v>      -0.00243472      -0.00032983      -0.00469268 </v>
   <v>       0.00092641       0.00011339       0.00218011 </v>
   <v>       0.00011602       0.00137764       0.00197088 </v>
   <v>       0.00158214       0.00598298       0.00021809 </v>
   <v>       0.00131924       0.00554717       0.00026166 </v>
   <v>      -0.00225714       0.00011598       0.00248135 </v>
   <v>      -0.00135841      -0.00488738       0.00411549 </v>
   <v>       0.00270863       0.00291175      -0.00034115 </v>
   <v>       0.00193892       0.00078098      -0.00009241 </v>
   <v>      -0.00175680       0.00110058      -0.00149102 </v>
   <v>      -0.00293293      -0.00287377      -0.00553941 </v>
   <v>      -0.00056197       0.00057154      -0.00539092 </v>
   <v>       0.00073071       0.00203123       0.00296159 </v>
   <v>      -0.00235979       0.00148267       0.00156142 </v>
   <v>      -0.00006591       0.00149688      -0.00057875 </v>
   <v>       0.00298407      -0.00403652       0.00353826 </v>
   <v>       0.00027991      -0.00009016       0.00104347 </v>
   <v>      -0.00123543       0.00113217       0.00011940 </v>
   <v>       0.00129951      -0.00223295       0.00226902 </v>
   <v>      -0.00024412       0.00021994       0.00246869 </v>
   <v>      -0.00379612      -0.00051908       0.00206106 </v>
   <v>       0.00094655      -0.00412082      -0.00128731 </v>
   <v>      -0.00259394      -0.00094859      -0.00351865 </v>
   <v>       0.00545160       0.00317039       0.00018858 </v>
   <v>       0.00056244      -0.00354863       0.00153817 </v>
   <v>      -0.00021872       0.00112262       0.00047032 </v>
   <v>       0.00181887       0.00273333      -0.00059611 </v>
   <v>      -0.00081078      -0.00129027      -0.00019817 </v>
   <v>      -0.00383671      -0.00144607      -0.00059408 </v>
   <v>       0.00020101      -0.00025859       0.00112710 </v>
   <v>      -0.00289113      -0.00467489      -0.00266458 </v>
   <v>       0.00284928       0.00009843       0.00065563 </v>
   <v>       0.00261539       0.00118125       0.00184316 </v>
   <v>       0.00492444      -0.00066498      -0.00469917 </v>
   <v>       0.00398011       0.00080950      -0.00032455 </v>
   <v>       0.00045301       0.00097439      -0.00189987 </v>
   <v>      -0.00079257      -0.00130084      -0.00165575 </v>
   <v>      -0.00072150       0.00100689       0.00151334 </v>
   <v>      -0.00229719       0.00046171      -0.00168568 </v>
   <v>       0.00347667       0.00112423       0.00238027 </v>
   <v>       0.00318651       0.00179941      -0.00176756 </v>
   <v>       0.00146890       0.00069722       0.00243209 </v>
   <v>       0.00055378      -0.00152139      -0.00153095 </v>
   <v>       0.00121040       0.00275521      -0.00082284 </v>
   <v>       0.00164984      -0.00445741      -0.00148174 </v>
   <v>       0.00372874       0.00094476      -0.00131108 </v>
   <v>      -0.00004970       0.00117638       0.00063378 </v>
   <v>       0.00160829      -0.00171366      -0.00158994 </v>
   <v>       0.00173722       0.00246830       0.00030079 </v>
   <v>      -0.00026564       0.00214461       0.00283685 </v>
   <v>      -0.00112734      -0.00115258      -0.00193588 </v>
   <v>      -0.00617127       0.00427385       0.00080786 </v>
   <v>       0.00250388      -0.00125014       0.00017321 </v>
   <v>       0.00069451      -0.00010929      -0.00109950 </v>
   <v>       0.00016400      -0.00097767       0.00035888 </v>
   <v>       0.00053038      -0.00001107      -0.00272007 </v>
   <v>       0.00375708      -0.00067468       0.00077216 </v>
   <v>      -0.00019536      -0.00648560       0.00133582 </v>
   <v>       0.00322522      -0.00111078       0.00149402 </v>
   <v>       0.00134483       0.00120239       0.00145479 </v>
   <v>      -0.00154430       0.00092011      -0.00062992 </v>
   <v>       0.00021935       0.00188156       0.00106989 </v>
   <v>      -0.00180123       0.00371483       0.00172536 </v>
   <v>      -0.00492684      -0.00079124       0.00126650 </v>
   <v>      -0.00530653       0.00033428      -0.00038249 </v>
   <v>       0.00093917       0.00093794      -0.00024105 </v>
   <v>      -0.00091416      -0.00099304       0.00243094 </v>
   <v>      -0.00568277      -0.00317832      -0.00352550 </v>
   <v>       0.00241613       0.00087106       0.00061423 </v>
   <v>      -0.00149950      -0.00222067       0.00123943 </v>
   <v>      -0.00183637      -0.00054183       0.00062065 </v>
   <v>      -0.00160916       0.00017394      -0.00442598 </v>
   <v>       0.00035696      -0.00145337       0.00395552 </v>
  </varray>
 </structure>
 <calculation>
  <scstep>
   <time name="dav">    1.70    1.71</time>
   <time name="total">    1.78    1.84</time>
   <energy>
    <i name="alphaZ">    316.14514549 </i>
    <i name="ewald"> -14870.14427170 </i>
    <i name="hartreedc">   -111.70296740 </i>
    <i name="XCdc">   -776.88631965 </i>
    <i name="pawpsdc">   8803.41707833 </i>
    <i name="pawaedc">  -7043.47671478 </i>
    <i name="eentropy">     -0.03591569 </i>
    <i name="bandstr">   4013.36721082 </i>
    <i name="atom">  10306.12861560 </i>
    <i name="e_fr_energy">    636.81186102 </i>
    <i name="e_wo_entrp">    636.84777671 </i>
    <i name="e_0_energy">    636.82981887 </i>
   </energy>
  </scstep>
  <scstep>
   <time name="dav">    1.98    1.99</time>
   <time name="total">    1.98    1.99</time>
   <energy>
    <i name="e_fr_energy">   -340.64721896 </i>
    <i name="e_wo_entrp">   -340.58428969 </i>
    <i name="e_0_energy">   -340.61575432 </i>
   </energy>
  </scstep>
  <scstep>
   <time name="dav">    1.96    1.97</time>
   <time name="total">    1.96    1.98</time>
   <energy>
    <i name="e_fr_energy">   -390.53587711 </i>
    <i name="e_wo_entrp">   -390.47943659 </i>
    <i name="e_0_energy">   -390.50765685 </i>
   </energy>
  </scstep>
  <scstep>
   <time name="dav">    1.96    1.97</time>
   <time name="total">    1.96    1.97</time>
   <energy>
    <i name="e_fr_energy">   -391.16237041 </i>
    <i name="e_wo_entrp">   -391.10636908 </i>
    <i name="e_0_energy">   -391.13436974 </i>
   </energy>
  </scstep>
  <scstep>
   <time name="dav">    1.94    1.96</time>
   <time name="total">    1.98    2.00</time>
   <energy>
    <i name="e_fr_energy">   -391.17484975 </i>
    <i name="e_wo_entrp">   -391.11886453 </i>
    <i name="e_0_energy">   -391.14685714 </i>
   </energy>
  </scstep>
  <scstep>
   <time name="diag">    0.29    0.29</time>
   <time name="diis">    0.63    0.64</time>
   <time name="orth">    0.09    0.09</time>
   <time name="total">    1.12    1.12</time>
   <energy>
    <i name="e_fr_energy">   -395.68615110 </i>
    <i name="e_wo_entrp">   -395.63421052 </i>
    <i name="e_0_energy">   -395.66018081 </i>
   </energy>
  </scstep>
  <scstep>
   <time name="diag">    0.29    0.29</time>
   <time name="diis">    0.64    0.64</time>
   <time name="orth">    0.09    0.09</time>
   <time name="total">    1.12    1.13</time>
   <energy>
    <i name="e_fr_energy">   -403.57424831 </i>
    <i name="e_wo_entrp">   -403.51250285 </i>
    <i name="e_0_energy">   -403.54337558 </i>
   </energy>
  </scstep>
  <scstep>
   <time name="diag">    0.29    0.29</time>
   <time name="diis">    0.63    0.64</time>
   <time name="orth">    0.09    0.09</time>
   <time name="total">    1.12    1.12</time>
   <energy>
    <i name="e_fr_energy">   -404.31510467 </i>
    <i name="e_wo_entrp">   -404.27871459 </i>
    <i name="e_0_energy">   -404.29690963 </i>
   </energy>
  </scstep>
  <scstep>
   <time name="diag">    0.29    0.29</time>
   <time name="diis">    0.64    0.64</time>
   <time name="orth">    0.09    0.09</time>
   <time name="total">    1.12    1.12</time>
   <energy>
    <i name="e_fr_energy">   -404.44026779 </i>
    <i name="e_wo_entrp">   -404.39973046 </i>
    <i name="e_0_energy">   -404.41999912 </i>
   </energy>
  </scstep>
  <scstep>
   <time name="diag">    0.29    0.29</time>
   <time name="diis">    0.64    0.64</time>
   <time name="orth">    0.09    0.09</time>
   <time name="total">    1.12    1.13</time>
   <energy>
    <i name="e_fr_energy">   -404.50579903 </i>
    <i name="e_wo_entrp">   -404.46333878 </i>
    <i name="e_0_energy">   -404.48456891 </i>
   </energy>
  </scstep>
  <scstep>
   <time name="diag">    0.29    0.29</time>
   <time name="diis">    0.64    0.64</time>
   <time name="orth">    0.09    0.09</time>
   <time name="total">    1.12    1.13</time>
   <energy>
    <i name="e_fr_energy">   -404.53128778 </i>
    <i name="e_wo_entrp">   -404.48342345 </i>
    <i name="e_0_energy">   -404.50735562 </i>
   </energy>
  </scstep>
  <scstep>
   <time name="diag">    0.29    0.29</time>
   <time name="diis">    0.64    0.65</time>
   <time name="orth">    0.09    0.09</time>
   <time name="total">    1.13    1.13</time>
   <energy>
    <i name="e_fr_energy">   -404.53908731 </i>
    <i name="e_wo_entrp">   -404.48514940 </i>
    <i name="e_0_energy">   -404.51211836 </i>
   </energy>
  </scstep>
  <scstep>
   <time name="diag">    0.29    0.29</time>
   <time name="diis">    0.63    0.64</time>
   <time name="orth">    0.09    0.09</time>
   <time name="total">    1.12    1.12</time>
   <energy>
    <i name="e_fr_energy">   -404.54108546 </i>
    <i name="e_wo_entrp">   -404.48401521 </i>
    <i name="e_0_energy">   -404.51255034 </i>
   </energy>
  </scstep>
  <scstep>
   <time name="diag">    0.29    0.29</time>
   <time name="diis">    0.63    0.64</time>
   <time name="orth">    0.09    0.09</time>
   <time name="total">    1.12    1.12</time>
   <energy>
    <i name="e_fr_energy">   -404.54199831 </i>
    <i name="e_wo_entrp">   -404.48322039 </i>
    <i name="e_0_energy">   -404.51260935 </i>
   </energy>
  </scstep>
  <scstep>
   <time name="diag">    0.29    0.29</time>
   <time name="diis">    0.63    0.64</time>
   <time name="orth">    0.09    0.09</time>
   <time name="total">    1.12    1.12</time>
   <energy>
    <i name="e_fr_energy">   -404.54244908 </i>
    <i name="e_wo_entrp">   -404.48285169 </i>
    <i name="e_0_energy">   -404.51265039 </i>
   </energy>
  </scstep>
  <scstep>
   <time name="diag">    0.29    0.29</time>
   <time name="diis">    0.64    0.64</time>
   <time name="orth">    0.09    0.09</time>
   <time name="total">    1.12    1.13</time>
   <energy>
    <i name="e_fr_energy">   -404.54266539 </i>
    <i name="e_wo_entrp">   -404.48269366 </i>
    <i name="e_0_energy">   -404.51267953 </i>
   </energy>
  </scstep>
  <scstep>
   <time name="diag">    0.29    0.29</time>
   <time name="diis">    0.63    0.64</time>
   <time name="orth">    0.09    0.09</time>
   <time name="total">    1.12    1.12</time>
   <energy>
    <i name="e_fr_energy">   -404.54272361 </i>
    <i name="e_wo_entrp">   -404.48265195 </i>
    <i name="e_0_energy">   -404.51268778 </i>
   </energy>
  </scstep>
  <scstep>
   <time name="diag">    0.29    0.29</time>
   <time name="diis">    0.53    0.53</time>
   <time name="orth">    0.09    0.09</time>
   <time name="total">    0.97    0.98</time>
   <energy>
    <i name="alphaZ">    316.14514549 </i>
    <i name="ewald"> -14870.14427170 </i>
    <i name="hartreedc">   -158.30372941 </i>
    <i name="XCdc">   -767.32154662 </i>
    <i name="pawpsdc">  91250.02802318 </i>
    <i name="pawaedc"> -89507.09054407 </i>
    <i name="eentropy">     -0.06007242 </i>
    <i name="bandstr">   3026.07564818 </i>
    <i name="atom">  10306.12861560 </i>
    <i name="e_fr_energy">   -404.54273178 </i>
    <i name="e_wo_entrp">   -404.48265936 </i>
    <i name="e_0_energy">   -404.51269557 </i>
   </energy>
  </scstep>
  <structure>
   <crystal>
    <varray name="basis" >
     <v>      10.21149500       0.00000000       0.00000000 </v>
     <v>       0.00000000      10.21149500       0.00000000 </v>
     <v>       0.00000000       0.00000000      10.21149500 </v>
    </varray>
    <i name="volume">   1064.79986425 </i>
    <varray name="rec_basis" >
     <v>       0.09792885       0.00000000       0.00000000 </v>
     <v>       0.00000000       0.09792885       0.00000000 </v>
     <v>       0.00000000       0.00000000       0.09792885 </v>
    </varray>
   </crystal>
   <varray name="positions" >
    <v>       0.82678706       0.76971749       0.09252905 </v>
    <v>       0.82127349       0.89755911       0.90501962 </v>
    <v>       0.69347554       0.14102361       0.42735735 </v>
    <v>       0.78908798       0.21776262       0.85880838 </v>
    <v>       0.29951246       0.99159498       0.40474070 </v>
    <v>       0.61543204       0.80021062       0.84911510 </v>
    <v>       0.49963330       0.57907227       0.43685138 </v>
    <v>       0.50215500       0.54825431       0.21516769 </v>
    <v>       0.55207971       0.96332794       0.27800247 </v>
    <v>       0.01358307       0.99547829       0.87686711 </v>
    <v>       0.18340969       0.19276130       0.43854909 </v>
    <v>       0.80703294       0.41726086       0.41665317 </v>
    <v>       0.97421920       0.21556211       0.77452081 </v>
    <v>       0.76932578       0.31380555       0.63553616 </v>
    <v>       0.88831915       0.17893081       0.52109741 </v>
    <v>       0.08024170       0.99320548       0.43113047 </v>
    <v>       0.04878172       0.08674512       0.62829556 </v>
    <v>       0.18344635       0.26685450       0.98102194 </v>
    <v>       0.43893087       0.19819476       0.36456129 </v>
    <v>       0.59955461       0.72908983       0.29947778 </v>
    <v>       0.57037617       0.69380649       0.04706389 </v>
    <v>       0.00579220       0.37888725       0.61513504 </v>
    <v>       0.61652270       0.24660919       0.99640220 </v>
    <v>       0.32273860       0.66256968       0.32244627 </v>
    <v>       0.89730702       0.07858862       0.31329042 </v>
    <v>       0.01868479       0.37975347       0.12102311 </v>
    <v>       0.18205724       0.05065059       0.02296473 </v>
    <v>       0.04240005       0.35504001       0.37788660 </v>
    <v>       0.29427314       0.44015620       0.07345165 </v>
    <v>       0.63632037       0.07702451       0.84839179 </v>
    <v>       0.67120253       0.90515230       0.45739250 </v>
    <v>       0.18308574       0.13636684       0.81471311 </v>
    <v>       0.22732836       0.81617911       0.05244054 </v>
    <v>       0.09307416       0.57792449       0.43270363 </v>
    <v>       0.23549549       0.29906055       0.24593456 </v>
    <v>       0.02136894       0.79880168       0.97956428 </v>
    <v>       0.40805899       0.81380335       0.19419896 </v>
    <v>       0.73511288       0.57816883       0.21539859 </v>
    <v>       0.09975562       0.13173672       0.23029653 </v>
    <v>       0.48913563       0.05332340       0.07311128 </v>
    <v>       0.77937749       0.65254332       0.90568999 </v>
    <v>       0.41597938       0.49836629       0.64499689 </v>
    <v>       0.97229718       0.95066382       0.14847622 </v>
    <v>       0.89172054       0.58828619       0.57043012 </v>
    <v>       0.45598415       0.28635304       0.56809016 </v>
    <v>       0.20390766       0.48821035       0.60244309 </v>
    <v>       0.86307286       0.25767828       0.22455900 </v>
    <v>       0.63369800       0.14079510       0.62898519 </v>
    <v>       0.41659646       0.06890247       0.81280840 </v>
    <v>       0.79245656       0.07406957       0.06089393 </v>
    <v>       0.37067009       0.30240307       0.78715849 </v>
    <v>       0.14366540       0.49791660       0.24515740 </v>
    <v>       0.25096502       0.93290225       0.82704954 </v>
    <v>       0.96619191       0.61853485       0.81622805 </v>
    <v>       0.47776403       0.32142227       0.17841348 </v>
    <v>       0.02224729       0.83712200       0.73778618 </v>
    <v>       0.09979749       0.64390425       0.63714734 </v>
    <v>       0.74277742       0.69862945       0.47950947 </v>
    <v>       0.11494868       0.61354963       0.01466046 </v>
    <v>       0.62432368       0.94278604       0.67365930 </v>
    <v>       0.61623693       0.89854485       0.05201390 </v>
    <v>       0.32129065       0.09288911       0.62187355 </v>
    <v>       0.65234744       0.50153412       0.57955424 </v>
    <v>       0.10995940       0.73047337       0.23155464 </v>
    <v>       0.45080803       0.46453632       0.92339196 </v>
    <v>       0.18441881       0.92626686       0.23266514 </v>
    <v>       0.93365084       0.58139140       0.28685537 </v>
    <v>       0.17450904       0.27078829       0.64930305 </v>
    <v>       0.80709769       0.45066503       0.80281007 </v>
    <v>       0.79841850       0.76772791       0.72777777 </v>
    <v>       0.58228479       0.30795672       0.77953236 </v>
    <v>       0.24926925       0.46385822       0.82536813 </v>
    <v>       0.19910225       0.70471885       0.81230493 </v>
    <v>       0.58299228       0.71677251       0.61697912 </v>
    <v>       0.64262422       0.48593721       0.02149855 </v>
    <v>       0.43249376       0.80082460       0.43067617 </v>
    <v>       0.41756319       0.84441391       0.94865744 </v>
    <v>       0.31051020       0.44501211       0.42066696 </v>
    <v>       0.90263025       0.55246141       0.06136845 </v>
    <v>       0.62702807       0.55613951       0.79026768 </v>
    <v>       0.59773431       0.36223356       0.41947468 </v>
    <v>       0.19618356       0.79243294       0.43168660 </v>
    <v>       0.82428001       0.01744195       0.71517894 </v>
    <v>       0.32394072       0.70690518       0.60168360 </v>
    <v>       0.38233207       0.22400821       0.99014608 </v>
    <v>       0.63916904       0.16221830       0.19920850 </v>
    <v>       0.34223303       0.64427645       0.04290265 </v>
    <v>       0.87299060       0.96302479       0.49894245 </v>
    <v>       0.40463844       0.64911099       0.81361176 </v>
    <v>       0.77068485       0.92356365       0.23944536 </v>
    <v>       0.49958472       0.01985801       0.49195882 </v>
    <v>       0.67746130       0.38057808       0.22490928 </v>
    <v>       0.42625474       0.86200250       0.69801600 </v>
    <v>       0.82232522       0.35786708       0.01113364 </v>
    <v>       0.90766447       0.78380485       0.30493007 </v>
    <v>       0.98488932       0.17892245       0.03466738 </v>
    <v>       0.03904048       0.40663790       0.91322701 </v>
    <v>       0.98944865       0.80215892       0.51867634 </v>
    <v>       0.19370413       0.91360206       0.60729156 </v>
    <v>       0.33539121       0.10138613       0.19453492 </v>
   </varray>
  </structure>
  <varray name="forces" >
   <v>      -0.75008206      -0.54434433      -0.48585832 </v>
   <v>      -0.99121656       0.79232918       0.84876520 </v>
   <v>      -0.46949291       0.67014040      -3.03372215 </v>
   <v>      -0.17087081      -0.68273306      -0.33964336 </v>
   <v>       1.80007463       0.98494410       0.06195536 </v>
   <v>      -1.60337430      -0.36816149      -0.92831226 </v>
   <v>      -0.17974182      -0.63940109       0.66993484 </v>
   <v>      -1.56731251      -1.47657466      -0.73958179 </v>
   <v>      -0.95489916       0.38373867      -0.97050263 </v>
   <v>      -0.47427449       2.37363400       0.38873069 </v>
   <v>       1.25466060       0.03716804       0.91381742 </v>
   <v>       2.43070452       0.30965880      -0.18366543 </v>
   <v>       1.22863823       1.77518417       0.94897099 </v>
   <v>       0.36190708       1.15641934       0.19602138 </v>
   <v>       1.12947391       1.82961810      -0.97578839 </v>
   <v>      -0.90647934       0.86511805      -2.13333597 </v>
   <v>       1.03226459      -2.59864283      -0.39578729 </v>
   <v>      -1.03883861       1.48772817       1.33352494 </v>
   <v>      -0.51660204       0.31521240      -0.09844718 </v>
   <v>       1.97883884       1.28099397      -0.39078687 </v>
   <v>      -0.05722713      -1.53670413       0.56210611 </v>
   <v>      -3.94617350       2.46202644      -0.78427187 </v>
   <v>      -0.82774972       0.81612461       0.30872440 </v>
   <v>      -1.68704325      -4.43418350      -2.13260128 </v>
   <v>       0.41838045      -0.42276885       1.43506833 </v>
   <v>       0.87814160      -0.88083403       2.69966983 </v>
   <v>       1.04844884      -1.45108762       1.08745296 </v>
   <v>      -2.48318960      -1.24042302       0.77983896 </v>
   <v>      -0.91244147      -0.65254658       1.30844122 </v>
   <v>      -1.19725293      -2.06809808       1.94523138 </v>
   <v>       0.55604270      -1.68782952      -0.36222359 </v>
   <v>       0.95090184      -0.33200134      -0.63055231 </v>
   <v>      -1.13613145       2.24070707      -0.87749583 </v>
   <v>      -0.02378173       0.88322418       0.44630332 </v>
   <v>       1.52229137       1.07831212      -0.38905130 </v>
   <v>      -1.87859616       0.99104296      -0.21457975 </v>
   <v>       0.51879463       1.88474059      -1.29293978 </v>
   <v>       0.15980437       2.16926033       0.34200206 </v>
   <v>      -1.30990424       0.76628786      -0.00881924 </v>
   <v>      -0.46043810       0.35178680      -2.55962830 </v>
   <v>      -1.49210532       0.17713024       2.90034740 </v>
   <v>       1.63277285      -0.03880020      -0.58327458 </v>
   <v>       1.27920890      -0.83953308      -2.04137118 </v>
   <v>       0.63061312      -2.49500249       1.28184602 </v>
   <v>      -1.30169223      -0.39309651       1.37134238 </v>
   <v>       2.27408782      -4.53863212      -0.20818092 </v>
   <v>      -0.30835348       2.85936617      -0.15712386 </v>
   <v>      -0.96167894       3.18536347       0.93066885 </v>
   <v>       1.47297417       0.86989315       1.99915597 </v>
   <v>      -0.36407964       0.01456769      -0.91126464 </v>
   <v>      -0.73188969      -2.48700241      -2.10797177 </v>
   <v>       2.69504588       2.02732975      -2.13537540 </v>
   <v>      -1.81972197      -1.95156002       0.99526989 </v>
   <v>       1.49070975      -1.37721275      -0.40408605 </v>
   <v>      -2.41488233       0.37318028       0.22327668 </v>
   <v>      -0.80074657       0.33188292      -0.49183857 </v>
   <v>      -2.95926944       3.87451094       1.00452950 </v>
   <v>       0.65710200       0.05398128      -2.70644355 </v>
   <v>       0.99640751      -2.56615168       0.50869388 </v>
   <v>      -0.30205415      -3.54021057       0.05464471 </v>
   <v>       3.82360237       0.00224890       1.19041681 </v>
   <v>       0.48785241       0.92335183      -1.49650942 </v>
   <v>       1.12776165       0.00398523       0.86780337 </v>
   <v>      -0.57959374      -2.35796111      -0.62568369 </v>
   <v>       1.26006775      -1.00793779       0.32496793 </v>
   <v>       1.16038381       1.31893340       0.05318516 </v>
   <v>       0.06496573      -2.75664776       0.32598781 </v>
   <v>       3.29976819       0.21352727      -0.42704178 </v>
   <v>       2.59047906      -0.86318443      -0.43545006 </v>
   <v>       1.04356408       0.23317143      -4.03717080 </v>
   <v>       1.39120661       1.08989707      -0.54185348 </v>
   <v>      -3.12680544       2.24984880       0.61769284 </v>
   <v>      -0.16789352       0.18983131       2.10298288 </v>
   <v>      -1.40179874       0.20489551       1.32041538 </v>
   <v>       0.72274608      -0.61514509      -0.28490521 </v>
   <v>       1.45169386       2.47243930       2.07942404 </v>
   <v>       0.36762639       1.19610405      -0.82581463 </v>
   <v>       1.06838685      -0.82259712      -0.88734587 </v>
   <v>      -0.18775722       1.82302822       0.46187959 </v>
   <v>      -3.18561460       1.24869335      -0.28650752 </v>
   <v>      -1.69707663      -0.79967795      -0.28950664 </v>
   <v>      -0.92259754      -0.76179249      -0.38669675 </v>
   <v>       2.21132460       0.86166894       0.40037074 </v>
   <v>      -1.21338641      -1.72669506      -0.63867650 </v>
   <v>       2.37563791      -0.70742369       0.85990603 </v>
   <v>       0.92710734      -1.16722726       1.92228946 </v>
   <v>       1.80452702      -1.14251448       0.39776505 </v>
   <v>      -2.77327326       0.90811665       0.80916066 </v>
   <v>       2.45952759       1.05070324      -0.09981634 </v>
   <v>      -3.52693512       1.04809786      -0.19752913 </v>
   <v>      -1.44080553       0.60997281       1.42807906 </v>
   <v>       1.58362213      -1.23155572      -0.99056001 </v>
   <v>      -0.34321896       1.49637227       0.83418660 </v>
   <v>      -0.49017113      -0.06784521       1.28753314 </v>
   <v>       0.66864491       0.62351681       2.19809424 </v>
   <v>      -0.51746989      -1.34743027      -1.32375206 </v>
   <v>      -0.99827554       1.53200102      -4.18854873 </v>
   <v>       0.29082971      -3.26725154       0.10482010 </v>
   <v>       0.76651178      -0.41583199       1.82719016 </v>
   <v>      -1.78013551      -0.66720200       0.69658465 </v>
  </varray>
  <varray name="stress" >
   <v>     738.50867859     -49.92971188      -8.59956806 </v>
   <v>     -49.92971181     738.59111428      39.52092887 </v>
   <v>      -8.59956813      39.52092888     681.59524423 </v>
  </varray>
  <energy>
   <i name="e_fr_energy">   -404.54273178 </i>
   <i name="e_wo_entrp">   -404.51269557 </i>
   <i name="e_0_energy">     -0.06007242 </i>
   <i name="kinetic">     27.67137012 </i>
   <i name="lattice kinetic">      0.00000000 </i>
   <i name="nosepot">    124.84154652 </i>
   <i name="nosekinetic">      0.08408076 </i>
   <i name="total">   -251.94573438 </i>
  </energy>
  <time name="totalsc">   25.97   26.36</time>
 </calculation>
 <calculation>
  <scstep>
   <time name="dav">    1.75    1.76</time>
   <time name="total">    1.86    1.94</time>
   <energy>
    <i name="alphaZ">    316.14514549 </i>
    <i name="ewald"> -14876.05444683 </i>
    <i name="hartreedc">   -153.50421265 </i>
    <i name="XCdc">   -767.46563052 </i>
    <i name="pawpsdc">  91249.65419270 </i>
    <i name="pawaedc"> -89506.71544035 </i>
    <i name="eentropy">     -0.05956221 </i>
    <i name="bandstr">   3026.92226754 </i>
    <i name="atom">  10306.12861560 </i>
    <i name="e_fr_energy">   -404.94907123 </i>
    <i name="e_wo_entrp">   -404.88950903 </i>
    <i name="e_0_energy">   -404.91929013 </i>
   </energy>
  </scstep>
  <scstep>
   <time name="diag">    0.29    0.29</time>
   <time name="diis">    0.65    0.66</time>
   <time name="orth">    0.09    0.09</time>
   <time name="total">    1.14    1.18</time>
   <energy>
    <i name="e_fr_energy">   -404.92150151 </i>
    <i name="e_wo_entrp">   -404.86451827 </i>
    <i name="e_0_energy">   -404.89300989 </i>
   </energy>
  </scstep>
  <scstep>
   <time name="diag">    0.29    0.29</time>
   <time name="diis">    0.63    0.64</time>
   <time name="orth">    0.09    0.09</time>
   <time name="total">    1.12    1.12</time>
   <energy>
    <i name="e_fr_energy">   -404.88466157 </i>
    <i name="e_wo_entrp">   -404.82697375 </i>
    <i name="e_0_energy">   -404.85581766 </i>
   </energy>
  </scstep>
  <scstep>
   <time name="diag">    0.29    0.29</time>
   <time name="diis">    0.64    0.65</time>
   <time name="orth">    0.09    0.09</time>
   <time name="total">    1.13    1.13</time>
   <energy>
    <i name="e_fr_energy">   -404.87239304 </i>
    <i name="e_wo_entrp">   -404.81374083 </i>
    <i name="e_0_energy">   -404.84306694 </i>
   </energy>
  </scstep>
  <scstep>
   <time name="diag">    0.29    0.29</time>
   <time name="diis">    0.63    0.64</time>
   <time name="orth">    0.09    0.09</time>
   <time name="total">    1.11    1.12</time>
   <energy>
    <i name="e_fr_energy">   -404.87026964 </i>
    <i name="e_wo_entrp">   -404.81188331 </i>
    <i name="e_0_energy">   -404.84107648 </i>
   </energy>
  </scstep>
  <scstep>
   <time name="diag">    0.29    0.29</time>
   <time name="diis">    0.64    0.64</time>
   <time name="orth">    0.09    0.09</time>
   <time name="total">    1.12    1.13</time>
   <energy>
    <i name="e_fr_energy">   -404.86991979 </i>
    <i name="e_wo_entrp">   -404.81117573 </i>
    <i name="e_0_energy">   -404.84054776 </i>
   </energy>
  </scstep>
  <scstep>
   <time name="diag">    0.29    0.29</time>
   <time name="diis">    0.61    0.62</time>
   <time name="orth">    0.09    0.09</time>
   <time name="total">    1.09    1.10</time>
   <energy>
    <i name="e_fr_energy">   -404.86986040 </i>
    <i name="e_wo_entrp">   -404.81109899 </i>
    <i name="e_0_energy">   -404.84047970 </i>
   </energy>
  </scstep>
  <scstep>
   <time name="diag">    0.29    0.29</time>
   <time name="diis">    0.49    0.49</time>
   <time name="orth">    0.09    0.09</time>
   <time name="total">    0.97    1.04</time>
   <energy>
    <i name="e_fr_energy">   -404.86984323 </i>
    <i name="e_wo_entrp">   -404.81112340 </i>
    <i name="e_0_energy">   -404.84048332 </i>
   </energy>
  </scstep>
  <scstep>
   <time name="diag">    0.29    0.29</time>
   <time name="diis">    0.42    0.43</time>
   <time name="orth">    0.09    0.09</time>
   <time name="total">    0.87    0.87</time>
   <energy>
    <i name="alphaZ">    316.14514549 </i>
    <i name="ewald"> -14876.05444683 </i>
    <i name="hartreedc">   -153.50229142 </i>
    <i name="XCdc">   -767.43846794 </i>
    <i name="pawpsdc">  91111.67874743 </i>
    <i name="pawaedc"> -89368.69055480 </i>
    <i name="eentropy">     -0.05871102 </i>
    <i name="bandstr">   3026.92212114 </i>
    <i name="atom">  10306.12861560 </i>
    <i name="e_fr_energy">   -404.86984236 </i>
    <i name="e_wo_entrp">   -404.81113134 </i>
    <i name="e_0_energy">   -404.84048685 </i>
   </energy>
  </scstep>
  <structure>
   <crystal>
    <varray name="basis" >
     <v>      10.21149500       0.00000000       0.00000000 </v>
     <v>       0.00000000      10.21149500       0.00000000 </v>
     <v>       0.00000000       0.00000000      10.21149500 </v>
    </varray>
    <i name="volume">   1064.79986425 </i>
    <varray name="rec_basis" >
     <v>       0.09792885       0.00000000       0.00000000 </v>
     <v>       0.00000000       0.09792885       0.00000000 </v>
     <v>       0.00000000       0.00000000       0.09792885 </v>
    </varray>
   </crystal>
   <varray name="positions" >
    <v>       0.82895269       0.76827717       0.09209448 </v>
    <v>       0.82364073       0.89652577       0.90724611 </v>
    <v>       0.69257781       0.14338863       0.42824980 </v>
    <v>       0.78659767       0.21308382       0.86145490 </v>
    <v>       0.29631751       0.99453423       0.40521604 </v>
    <v>       0.61672863       0.80036492       0.85060408 </v>
    <v>       0.50392167       0.57848661       0.43688208 </v>
    <v>       0.49991869       0.54763013       0.21221977 </v>
    <v>       0.55177886       0.96476663       0.27534696 </v>
    <v>       0.01394614       0.99266218       0.87610553 </v>
    <v>       0.18264501       0.19697087       0.43657060 </v>
    <v>       0.80658082       0.41684652       0.41757404 </v>
    <v>       0.97768596       0.21333908       0.77381126 </v>
    <v>       0.76793397       0.31044812       0.63921622 </v>
    <v>       0.88703597       0.17791752       0.51769247 </v>
    <v>       0.07674907       0.99240230       0.43098199 </v>
    <v>       0.04752854       0.08859308       0.62944943 </v>
    <v>       0.18165573       0.27258997       0.98306084 </v>
    <v>       0.43794194       0.19951682       0.36530367 </v>
    <v>       0.59665610       0.72883089       0.29821134 </v>
    <v>       0.56868582       0.69662581       0.04881238 </v>
    <v>       0.00650272       0.37221149       0.61301954 </v>
    <v>       0.61461028       0.24540908       0.99496255 </v>
    <v>       0.31983495       0.66201583       0.32701117 </v>
    <v>       0.90062539       0.07920820       0.31016485 </v>
    <v>       0.01885080       0.38154506       0.11727194 </v>
    <v>       0.18663181       0.05184777       0.02264523 </v>
    <v>       0.03918001       0.35432842       0.37337554 </v>
    <v>       0.29493267       0.44007217       0.07605619 </v>
    <v>       0.63607312       0.07778862       0.85097858 </v>
    <v>       0.67297289       0.91069239       0.45750280 </v>
    <v>       0.18471034       0.14187891       0.81478576 </v>
    <v>       0.22469832       0.81697896       0.05468409 </v>
    <v>       0.09169235       0.57324794       0.43700400 </v>
    <v>       0.23870006       0.30233539       0.24547079 </v>
    <v>       0.02275876       0.79989381       0.97940535 </v>
    <v>       0.40643932       0.81549110       0.19229631 </v>
    <v>       0.73219373       0.57592158       0.20989735 </v>
    <v>       0.09878799       0.13254846       0.22483869 </v>
    <v>       0.48973481       0.05548595       0.07532843 </v>
    <v>       0.77653514       0.65409758       0.90815336 </v>
    <v>       0.41641003       0.49986916       0.64423354 </v>
    <v>       0.97570643       0.94632352       0.15143476 </v>
    <v>       0.89219588       0.58743499       0.57187639 </v>
    <v>       0.45433755       0.28737895       0.56862862 </v>
    <v>       0.20591532       0.48456838       0.60467565 </v>
    <v>       0.86273193       0.25877176       0.22700917 </v>
    <v>       0.62956379       0.14124006       0.63135420 </v>
    <v>       0.41800295       0.06499755       0.81211463 </v>
    <v>       0.78972087       0.07311411       0.05705577 </v>
    <v>       0.37596368       0.30485367       0.78670719 </v>
    <v>       0.14505544       0.49494322       0.24606341 </v>
    <v>       0.25018944       0.93344380       0.82782855 </v>
    <v>       0.96848651       0.62088123       0.81550171 </v>
    <v>       0.47620807       0.32023029       0.17828090 </v>
    <v>       0.01812103       0.83575980       0.73703516 </v>
    <v>       0.09909955       0.64482271       0.63859377 </v>
    <v>       0.74005204       0.69391534       0.47598875 </v>
    <v>       0.11813540       0.61286760       0.01547878 </v>
    <v>       0.62687822       0.94290302       0.67554098 </v>
    <v>       0.62238465       0.89787263       0.04762133 </v>
    <v>       0.32546675       0.09398948       0.62108925 </v>
    <v>       0.65314937       0.50252131       0.57789602 </v>
    <v>       0.10898088       0.72843882       0.22968855 </v>
    <v>       0.45046176       0.46524817       0.92502224 </v>
    <v>       0.18244774       0.92713579       0.23097554 </v>
    <v>       0.93718870       0.58168936       0.28936321 </v>
    <v>       0.17873858       0.27267415       0.64738432 </v>
    <v>       0.80937313       0.45110762       0.80513842 </v>
    <v>       0.79929675       0.76625942       0.72499885 </v>
    <v>       0.58393337       0.31107669       0.77853462 </v>
    <v>       0.24998635       0.46003302       0.82405683 </v>
    <v>       0.20282425       0.70573267       0.81161874 </v>
    <v>       0.58251503       0.71802529       0.61802257 </v>
    <v>       0.64447181       0.48401577       0.01980285 </v>
    <v>       0.43469385       0.80407535       0.43161386 </v>
    <v>       0.41740638       0.84694836       0.95127647 </v>
    <v>       0.30969488       0.44359524       0.41843770 </v>
    <v>       0.89632834       0.55734141       0.06232655 </v>
    <v>       0.62859147       0.55525482       0.79035562 </v>
    <v>       0.59792019       0.36187939       0.41827385 </v>
    <v>       0.19606852       0.79121158       0.43193191 </v>
    <v>       0.82549027       0.01769320       0.71254838 </v>
    <v>       0.32737296       0.70569652       0.60227036 </v>
    <v>       0.38285800       0.21722992       0.99175966 </v>
    <v>       0.64271506       0.16073876       0.20130576 </v>
    <v>       0.34414353       0.64514515       0.04449585 </v>
    <v>       0.87058322       0.96423244       0.49855143 </v>
    <v>       0.40560958       0.65133497       0.81466393 </v>
    <v>       0.76778793       0.92764194       0.24113104 </v>
    <v>       0.49416039       0.01924314       0.49367532 </v>
    <v>       0.67257398       0.38054121       0.22422047 </v>
    <v>       0.42710057       0.86340738       0.69802611 </v>
    <v>       0.82125089       0.35684154       0.01398563 </v>
    <v>       0.90211773       0.78077860       0.30203207 </v>
    <v>       0.98717662       0.17939346       0.03488566 </v>
    <v>       0.03721908       0.40485742       0.91320534 </v>
    <v>       0.98767902       0.80061545       0.51933625 </v>
    <v>       0.19230931       0.91365140       0.60336937 </v>
    <v>       0.33521023       0.09971223       0.19874964 </v>
   </varray>
  </structure>
  <varray name="forces" >
   <v>      -1.20004135       0.29154305      -0.07662228 </v>
   <v>      -1.23768125       0.70864578       0.11071927 </v>
   <v>      -0.74951638       0.64919306      -2.56956258 </v>
   <v>       1.91082492       0.22923135      -0.72226563 </v>
   <v>       1.31059184       0.63397230      -0.17296865 </v>
   <v>      -1.74900040      -0.42448538      -1.52197771 </v>
   <v>      -0.88673304      -0.44337645       0.16824285 </v>
   <v>      -1.63869156      -1.26832351      -0.46373262 </v>
   <v>      -1.17523989       0.15512013      -0.42290461 </v>
   <v>       0.03854680       3.05610458       0.50404910 </v>
   <v>       1.00954801      -0.51450026       0.85124091 </v>
   <v>       2.41856793       0.36957914      -0.20880316 </v>
   <v>      -0.54844393       2.30222020       2.24478868 </v>
   <v>       0.82829338       1.36767107      -0.03640271 </v>
   <v>       1.22234093       2.28817041      -0.83325692 </v>
   <v>      -0.53557853       1.13660928      -2.03149769 </v>
   <v>       1.59388828      -3.05031299      -1.33981154 </v>
   <v>       0.48152145       0.45551948       1.28366499 </v>
   <v>      -0.34214827       0.14146450       0.08881729 </v>
   <v>       2.09095513       1.20858991      -0.57789597 </v>
   <v>       0.14204190      -2.19972041       0.61291284 </v>
   <v>      -4.38608054       2.83948848      -1.04795251 </v>
   <v>      -0.96024850       1.15359905       0.99354741 </v>
   <v>      -0.56082385      -4.07579941      -2.30665196 </v>
   <v>       0.25965964      -0.63977376       1.68304020 </v>
   <v>       0.53407506      -0.24845875       3.44457464 </v>
   <v>       0.97288764      -1.07347107       0.76333950 </v>
   <v>      -2.53352171      -1.42365095       0.73806059 </v>
   <v>      -0.66152859      -0.21399703       0.86618940 </v>
   <v>      -1.75406413      -3.02168383       1.42139227 </v>
   <v>      -0.37155256      -2.27013002      -0.27873266 </v>
   <v>       1.28576703      -0.92993304      -0.37018517 </v>
   <v>      -0.48073651       1.78542725      -1.53592753 </v>
   <v>       0.31001570       0.81144685       0.20230425 </v>
   <v>       1.21221129      -0.05929787      -0.28188435 </v>
   <v>      -1.73327909       0.39960056      -0.39669868 </v>
   <v>       0.38945190       1.50455865      -0.50291407 </v>
   <v>       0.78958807       2.66217252       1.28542278 </v>
   <v>      -0.58812823       1.32105627       0.46318220 </v>
   <v>       0.52954713      -1.05742122      -2.27947256 </v>
   <v>      -0.92023116       0.16974778       1.87332994 </v>
   <v>       1.91534714      -0.00640544      -0.47800086 </v>
   <v>       0.33136317      -0.56997148      -2.08035440 </v>
   <v>       0.30479774      -2.47833116       1.22537304 </v>
   <v>      -1.05322617      -0.10969060       1.09623619 </v>
   <v>       1.24354303      -2.80518376      -0.17150121 </v>
   <v>      -0.26786076       3.31613275      -0.33928951 </v>
   <v>      -1.01300928       2.87458273       0.42188189 </v>
   <v>       1.29298358       1.23734642       2.06215577 </v>
   <v>       0.42981562       0.13394047      -0.44963231 </v>
   <v>      -0.98626442      -3.07011536      -1.45722582 </v>
   <v>       2.28353168       2.73979351      -1.97684402 </v>
   <v>      -2.20212817      -1.65834204       0.61080538 </v>
   <v>       0.79353835      -1.60064832       0.36242384 </v>
   <v>      -2.43275392      -0.00997138       0.02052157 </v>
   <v>      -0.26209046       0.54990605      -0.45728450 </v>
   <v>      -1.50717067       2.60025425       0.53282856 </v>
   <v>       0.69621533       0.43267958      -2.67911313 </v>
   <v>       0.28237239      -2.58754677       0.27259097 </v>
   <v>      -0.41020624      -3.62566612      -0.11306115 </v>
   <v>       2.98050334       1.24442305       1.77402908 </v>
   <v>      -0.47517620       0.79067698      -1.07991635 </v>
   <v>       1.36282863      -0.41062325       1.26839155 </v>
   <v>      -0.61661786      -2.07406544      -0.09902591 </v>
   <v>       1.29175210      -0.86904028       0.32181337 </v>
   <v>       1.49010324       1.16749649       0.89686446 </v>
[...]
       <r>     9.9464    12.2043   125.9380 </r>
       <r>    10.0325    11.5569   126.9327 </r>
       <r>    10.1185    15.5978   128.2752 </r>
       <r>    10.2046    19.9416   129.9915 </r>
       <r>    10.2907    30.2154   132.5921 </r>
       <r>    10.3768    21.7745   134.4663 </r>
       <r>    10.4628    12.7146   135.5606 </r>
       <r>    10.5489    16.8296   137.0091 </r>
       <r>    10.6350    27.9229   139.4124 </r>
       <r>    10.7210    22.2058   141.3236 </r>
       <r>    10.8071    16.0302   142.7033 </r>
       <r>    10.8932    18.7272   144.3152 </r>
       <r>    10.9792    18.7334   145.9275 </r>
       <r>    11.0653     3.9005   146.2633 </r>
       <r>    11.1514    17.5419   147.7731 </r>
       <r>    11.2374     5.5716   148.2526 </r>
       <r>    11.3235    17.6654   149.7731 </r>
       <r>    11.4096    17.5323   151.2821 </r>
       <r>    11.4957    29.7032   153.8386 </r>
       <r>    11.5817    13.6290   155.0116 </r>
       <r>    11.6678    15.9709   156.3862 </r>
       <r>    11.7539    31.0086   159.0551 </r>
       <r>    11.8399    21.0429   160.8663 </r>
       <r>    11.9260    17.6164   162.3825 </r>
       <r>    12.0121    22.4351   164.3135 </r>
       <r>    12.0981    19.5971   166.0002 </r>
       <r>    12.1842    12.3281   167.0612 </r>
       <r>    12.2703    12.1853   168.1100 </r>
       <r>    12.3563    13.1382   169.2408 </r>
       <r>    12.4424     8.5219   169.9743 </r>
       <r>    12.5285     4.3181   170.3459 </r>
       <r>    12.6146     7.3578   170.9792 </r>
       <r>    12.7006     0.2467   171.0005 </r>
       <r>    12.7867     2.3660   171.2041 </r>
       <r>    12.8728    15.5389   172.5415 </r>
       <r>    12.9588    16.3987   173.9529 </r>
       <r>    13.0449    22.3555   175.8771 </r>
       <r>    13.1310     1.4274   175.9999 </r>
       <r>    13.2170     0.5084   176.0437 </r>
       <r>    13.3031    14.9524   177.3306 </r>
       <r>    13.3892    18.6752   178.9380 </r>
       <r>    13.4752    19.1979   180.5903 </r>
       <r>    13.5613     6.9476   181.1883 </r>
       <r>    13.6474    17.3458   182.6812 </r>
       <r>    13.7335    14.9870   183.9712 </r>
       <r>    13.8195    14.5603   185.2244 </r>
       <r>    13.9056    13.5044   186.3867 </r>
       <r>    13.9917    13.2429   187.5265 </r>
       <r>    14.0777    20.1176   189.2580 </r>
       <r>    14.1638    28.4924   191.7103 </r>
       <r>    14.2499    17.0735   193.1798 </r>
       <r>    14.3359    18.6214   194.7825 </r>
       <r>    14.4220    10.4345   195.6806 </r>
       <r>    14.5081    27.8854   198.0807 </r>
       <r>    14.5941    12.7363   199.1769 </r>
       <r>    14.6802    14.0319   200.3846 </r>
       <r>    14.7663    23.8585   202.4381 </r>
       <r>    14.8524    15.6240   203.7828 </r>
       <r>    14.9384    23.0714   205.7686 </r>
       <r>    15.0245    15.4799   207.1009 </r>
       <r>    15.1106    13.7687   208.2860 </r>
       <r>    15.1966    20.1846   210.0233 </r>
       <r>    15.2827    28.4674   212.4734 </r>
       <r>    15.3688    25.8922   214.7020 </r>
       <r>    15.4548    23.3056   216.7079 </r>
       <r>    15.5409    18.6720   218.3149 </r>
       <r>    15.6270    26.8941   220.6297 </r>
       <r>    15.7130    28.3866   223.0729 </r>
       <r>    15.7991    23.0328   225.0553 </r>
       <r>    15.8852    23.9721   227.1186 </r>
       <r>    15.9713    26.3521   229.3867 </r>
       <r>    16.0573    24.5408   231.4989 </r>
       <r>    16.1434    18.9505   233.1300 </r>
       <r>    16.2295    22.6786   235.0819 </r>
       <r>    16.3155    17.5397   236.5915 </r>
       <r>    16.4016    19.6580   238.2835 </r>
       <r>    16.4877    24.2642   240.3719 </r>
       <r>    16.5737    24.8628   242.5118 </r>
       <r>    16.6598    27.7222   244.8978 </r>
       <r>    16.7459    18.7529   246.5119 </r>
       <r>    16.8319    15.6225   247.8565 </r>
       <r>    16.9180    18.4289   249.4426 </r>
       <r>    17.0041     9.4322   250.2545 </r>
       <r>    17.0902     8.2285   250.9627 </r>
       <r>    17.1762     0.4335   251.0000 </r>
       <r>    17.2623     0.0001   251.0000 </r>
       <r>    17.3484     0.0000   251.0000 </r>
       <r>    17.4344     0.0000   251.0000 </r>
       <r>    17.5205     0.0000   251.0000 </r>
       <r>    17.6066     0.0000   251.0000 </r>
       <r>    17.6926     0.0004   251.0000 </r>
       <r>    17.7787     0.7666   251.0660 </r>
       <r>    17.8648    13.5706   252.2340 </r>
       <r>    17.9508    16.2420   253.6320 </r>
       <r>    18.0369    17.0487   255.0993 </r>
       <r>    18.1230    10.1906   255.9764 </r>
       <r>    18.2091     0.5633   256.0249 </r>
       <r>    18.2951     9.1233   256.8101 </r>
       <r>    18.3812    14.4392   258.0529 </r>
       <r>    18.4673    15.8623   259.4182 </r>
       <r>    18.5533    10.7561   260.3439 </r>
       <r>    18.6394    17.8636   261.8814 </r>
       <r>    18.7255    27.0080   264.2060 </r>
       <r>    18.8115    31.1861   266.8902 </r>
       <r>    18.8976    27.1319   269.2254 </r>
       <r>    18.9837    27.5201   271.5940 </r>
       <r>    19.0697    18.5517   273.1908 </r>
       <r>    19.1558    27.2558   275.5366 </r>
       <r>    19.2419    25.6402   277.7435 </r>
       <r>    19.3280    34.5307   280.7155 </r>
       <r>    19.4140    25.8389   282.9394 </r>
       <r>    19.5001    27.8234   285.3342 </r>
       <r>    19.5862    30.8007   287.9852 </r>
       <r>    19.6722    26.2166   290.2416 </r>
       <r>    19.7583    20.3306   291.9914 </r>
       <r>    19.8444    19.7786   293.6938 </r>
       <r>    19.9304    27.3003   296.0435 </r>
       <r>    20.0165    30.0724   298.6318 </r>
       <r>    20.1026    18.3489   300.2111 </r>
       <r>    20.1886    16.9564   301.6705 </r>
       <r>    20.2747    16.1553   303.0610 </r>
       <r>    20.3608    10.3098   303.9483 </r>
       <r>    20.4469     0.6002   304.0000 </r>
       <r>    20.5329     0.0003   304.0000 </r>
       <r>    20.6190     0.0000   304.0000 </r>
       <r>    20.7051     0.0000   304.0000 </r>
       <r>    20.7911     0.0000   304.0000 </r>
       <r>    20.8772     0.0000   304.0000 </r>
       <r>    20.9633     0.0000   304.0000 </r>
       <r>    21.0493     0.0000   304.0000 </r>
       <r>    21.1354     0.0000   304.0000 </r>
       <r>    21.2215     0.0000   304.0000 </r>
       <r>    21.3075     0.0000   304.0000 </r>
       <r>    21.3936     0.0000   304.0000 </r>
       <r>    21.4797     0.0000   304.0000 </r>
      </set>
     </set>
    </array>
   </total>
  </dos>
 </calculation>
 <structure name="finalpos" >
  <crystal>
   <varray name="basis" >
    <v>      10.21149500       0.00000000       0.00000000 </v>
    <v>       0.00000000      10.21149500       0.00000000 </v>
    <v>       0.00000000       0.00000000      10.21149500 </v>
   </varray>
   <i name="volume">   1064.79986425 </i>
   <varray name="rec_basis" >
    <v>       0.09792885       0.00000000       0.00000000 </v>
    <v>       0.00000000       0.09792885       0.00000000 </v>
    <v>       0.00000000       0.00000000       0.09792885 </v>
   </varray>
  </crystal>
  <varray name="positions" >
   <v>       0.78526660       0.88683563       0.15558525 </v>
   <v>       0.82859124       0.89598728       0.80597634 </v>
   <v>       0.64626096       0.12154670       0.49023874 </v>
   <v>       0.84481637       0.26314634       0.84529987 </v>
   <v>       0.19923055       0.95579113       0.43839998 </v>
   <v>       0.61293044       0.79597338       0.77093844 </v>
   <v>       0.45102658       0.57476272       0.40317394 </v>
   <v>       0.55122719       0.56173555       0.20955911 </v>
   <v>       0.46722067       0.98004192       0.23416768 </v>
   <v>       0.98872971       0.08323486       0.84214568 </v>
   <v>       0.19131199       0.18800959       0.48799778 </v>
   <v>       0.86599498       0.41584482       0.45447687 </v>
   <v>       0.06726869       0.30768374       0.82550804 </v>
   <v>       0.77023843       0.30753650       0.64727009 </v>
   <v>       0.88552650       0.14295791       0.45302446 </v>
   <v>       0.97731437       0.97321614       0.43239212 </v>
   <v>       0.06652142       0.08529232       0.64784469 </v>
   <v>       0.20816826       0.29209076       0.04264414 </v>
   <v>       0.43572032       0.21243146       0.45287957 </v>
   <v>       0.57976205       0.76856026       0.19391485 </v>
   <v>       0.54097579       0.63330083       0.96201453 </v>
   <v>       0.98964408       0.31075533       0.61113823 </v>
   <v>       0.67810732       0.22264029       0.03118738 </v>
   <v>       0.34822590       0.69031929       0.23748143 </v>
   <v>       0.84458322       0.09924501       0.19234161 </v>
   <v>       0.09207496       0.43685373       0.16217729 </v>
   <v>       0.28865954       0.07425286       0.06458826 </v>
   <v>       0.07937245       0.34225505       0.36983891 </v>
   <v>       0.31492478       0.48850731       0.11561748 </v>
   <v>       0.64579104       0.09873060       0.82354299 </v>
   <v>       0.59034599       0.78811488       0.46910218 </v>
   <v>       0.22097382       0.13356804       0.85108364 </v>
   <v>       0.18028466       0.87646754       0.02641820 </v>
   <v>       0.08030780       0.51261983       0.47975938 </v>
   <v>       0.28488916       0.31741719       0.24876847 </v>
   <v>       0.97800887       0.84564766       0.98673384 </v>
   <v>       0.43002398       0.88637397       0.05790270 </v>
   <v>       0.73727418       0.63361366       0.10150055 </v>
   <v>       0.10039803       0.12924272       0.30095252 </v>
   <v>       0.58985668       0.02647111       0.06795545 </v>
   <v>       0.77803601       0.68385497       0.89904321 </v>
   <v>       0.37342919       0.44407264       0.69182342 </v>
   <v>       0.01706684       0.94013888       0.21025202 </v>
   <v>       0.93460560       0.58182929       0.62025968 </v>
   <v>       0.55825901       0.35855317       0.56540798 </v>
   <v>       0.16335264       0.45066638       0.66655292 </v>
   <v>       0.92452980       0.29949233       0.25976691 </v>
   <v>       0.50336651       0.18102485       0.67434216 </v>
   <v>       0.43452964       0.11259689       0.88517139 </v>
   <v>       0.80452704       0.03506766       0.96872108 </v>
   <v>       0.38120801       0.32413842       0.89309246 </v>
   <v>       0.22092374       0.53894089       0.31076818 </v>
   <v>       0.13278967       0.94740164       0.77286645 </v>
   <v>       0.96683240       0.71534640       0.79597269 </v>
   <v>       0.50112852       0.36181565       0.31859925 </v>
   <v>       0.97223569       0.89081020       0.62870096 </v>
   <v>       0.11071329       0.69207315       0.60309422 </v>
   <v>       0.69089340       0.58417805       0.38427057 </v>
   <v>       0.11656123       0.65715875       0.03155339 </v>
   <v>       0.60675127       0.96246352       0.62391471 </v>
   <v>       0.64590087       0.83828707       0.97933589 </v>
   <v>       0.31432644       0.03910682       0.65934754 </v>
   <v>       0.73549277       0.51169068       0.59850676 </v>
   <v>       0.95630799       0.71936199       0.16227099 </v>
   <v>       0.50464489       0.40895483       0.05120221 </v>
   <v>       0.22975265       0.86046917       0.22610780 </v>
   <v>       0.91676175       0.55895439       0.29389709 </v>
   <v>       0.27523772       0.25481368       0.68188213 </v>
   <v>       0.84038101       0.47532684       0.79708106 </v>
   <v>       0.79040324       0.71775803       0.64390664 </v>
   <v>       0.59517797       0.29790262       0.82904676 </v>
   <v>       0.25057507       0.48408005       0.87198504 </v>
   <v>       0.19095246       0.71368911       0.81022739 </v>
   <v>       0.55328636       0.62063309       0.59600715 </v>
   <v>       0.69038768       0.46374924       0.97354921 </v>
   <v>       0.36099897       0.78237707       0.44097696 </v>
   <v>       0.33032438       0.90757172       0.85264746 </v>
   <v>       0.30788781       0.41032200       0.46708467 </v>
   <v>       0.91293814       0.52152111       0.05889308 </v>
   <v>       0.60745848       0.51341017       0.78066289 </v>
   <v>       0.71136997       0.29535710       0.40040278 </v>
   <v>       0.10542899       0.71675243       0.38202715 </v>
   <v>       0.84089635       0.08954066       0.66384115 </v>
   <v>       0.32239583       0.61376646       0.57824499 </v>
   <v>       0.44791270       0.20740657       0.12366092 </v>
   <v>       0.62470585       0.17422686       0.24891387 </v>
   <v>       0.33081600       0.70939704       0.01547554 </v>
   <v>       0.75801964       0.91377762       0.50496201 </v>
   <v>       0.41705381       0.65984268       0.79259858 </v>
   <v>       0.67928547       0.98043477       0.30331912 </v>
   <v>       0.45570952       0.99797501       0.45355031 </v>
   <v>       0.72690434       0.41583872       0.20484318 </v>
   <v>       0.45014783       0.83437848       0.65046095 </v>
   <v>       0.93633604       0.30773365       0.04541761 </v>
   <v>       0.78458622       0.77007424       0.32541018 </v>
   <v>       0.04828649       0.09773084       0.06474203 </v>
   <v>       0.03919066       0.51126947       0.90182611 </v>
   <v>       0.92361731       0.72833446       0.48239426 </v>
   <v>       0.24434344       0.84402354       0.60856924 </v>
   <v>       0.31420783       0.11146007       0.27700501 </v>
  </varray>
  <varray name="velocities" >
   <v>      -0.00340776       0.00116836      -0.00009194 </v>
   <v>      -0.00042712       0.00327411       0.00102374 </v>
   <v>      -0.00002876      -0.00170268      -0.00176181 </v>
   <v>      -0.00270543       0.00045342       0.00102527 </v>
   <v>       0.00130943       0.00047824      -0.00111206 </v>
   <v>       0.00047752       0.00103057       0.00176778 </v>
   <v>      -0.00525118      -0.00003879      -0.00384313 </v>
   <v>       0.00399351      -0.00099498       0.00026392 </v>
   <v>      -0.00508086       0.00257536      -0.00000140 </v>
   <v>      -0.00170278      -0.00094390       0.00550496 </v>
   <v>       0.00217577      -0.00023325      -0.00063805 </v>
   <v>      -0.00162326       0.00011891       0.00088114 </v>
   <v>       0.00332197       0.00218277       0.00008714 </v>
   <v>       0.00201423       0.00165318       0.00138118 </v>
   <v>       0.00263282       0.00571182      -0.00220753 </v>
   <v>       0.00008473       0.00270721      -0.00351203 </v>
   <v>       0.00059344      -0.00214113      -0.00033401 </v>
   <v>      -0.00436426       0.00285790      -0.00059653 </v>
   <v>       0.00158377       0.00263122      -0.00435100 </v>
   <v>       0.00215697      -0.00096044      -0.00031738 </v>
   <v>       0.00070695       0.00093102      -0.00015549 </v>
   <v>      -0.00055724      -0.00006993       0.00015041 </v>
   <v>      -0.00074481      -0.00224230      -0.00174496 </v>
   <v>       0.00242019       0.00225694       0.00091528 </v>
   <v>       0.00192793      -0.00090452       0.00165106 </v>
   <v>      -0.00213752       0.00264084       0.00166907 </v>
   <v>      -0.00203244       0.00210554       0.00301786 </v>
   <v>      -0.00127400       0.00049263       0.00172892 </v>
   <v>      -0.00427852      -0.00123458      -0.00025718 </v>
   <v>       0.00107207      -0.00057109       0.00193047 </v>
   <v>      -0.00006900      -0.00214356      -0.00043915 </v>
   <v>      -0.00089180       0.00089797       0.00048360 </v>
   <v>       0.00505773       0.00180845      -0.00283087 </v>
   <v>       0.00206082      -0.00008270       0.00150438 </v>
   <v>       0.00104451       0.00068039      -0.00022331 </v>
   <v>       0.00380701      -0.00136321      -0.00201137 </v>
   <v>       0.00068211      -0.00495123       0.00068797 </v>
   <v>      -0.00332353       0.00301276      -0.00118943 </v>
   <v>       0.00218663      -0.00156057      -0.00103122 </v>
   <v>       0.00129122      -0.00282258       0.00507505 </v>
   <v>       0.00255732       0.00130193      -0.00106364 </v>
   <v>       0.00029564      -0.00521083      -0.00010766 </v>
   <v>      -0.00055910      -0.00463874       0.00010907 </v>
   <v>       0.00093117       0.00078906       0.00003007 </v>
   <v>       0.00616566      -0.00204947      -0.00388625 </v>
   <v>       0.00121278       0.00081822       0.00193141 </v>
   <v>      -0.00007190       0.00221991      -0.00299923 </v>
   <v>      -0.00234315       0.00081770       0.00188569 </v>
   <v>       0.00163651      -0.00043114       0.00251331 </v>
   <v>      -0.00110023       0.00133686      -0.00191007 </v>
   <v>      -0.00284726      -0.00178738       0.00281515 </v>
   <v>      -0.00048555       0.00319485       0.00168565 </v>
   <v>      -0.00192360      -0.00000825       0.00452390 </v>
   <v>      -0.00131204      -0.00065360      -0.00180754 </v>
   <v>       0.00185949       0.00057374      -0.00192413 </v>
   <v>      -0.00142546      -0.00325408       0.00185052 </v>
   <v>       0.00193611       0.00315549       0.00065542 </v>
   <v>      -0.00405716      -0.00173758      -0.00353826 </v>
   <v>       0.00273698       0.00120436       0.00023283 </v>
   <v>      -0.00258678       0.00238606       0.00046717 </v>
   <v>       0.00125790       0.00159280       0.00200558 </v>
   <v>      -0.00210519      -0.00545404      -0.00009578 </v>
   <v>       0.00063626      -0.00141838       0.00091103 </v>
   <v>      -0.00519870       0.00101253       0.00122658 </v>
   <v>       0.00208349      -0.00183770       0.00219661 </v>
   <v>       0.00286861       0.00008878      -0.00253254 </v>
   <v>      -0.00218320       0.00099117      -0.00045065 </v>
   <v>       0.00083360      -0.00415420       0.00129207 </v>
   <v>      -0.00029017      -0.00144561       0.00223335 </v>
   <v>       0.00107438      -0.00412755      -0.00179377 </v>
   <v>       0.00087655      -0.00161526       0.00377843 </v>
   <v>      -0.00280475       0.00051855      -0.00201784 </v>
   <v>      -0.00411439       0.00013099      -0.00059107 </v>
   <v>       0.00249458      -0.00294034      -0.00316254 </v>
   <v>       0.00137519       0.00513651       0.00050038 </v>
   <v>       0.00044628       0.00099866      -0.00066569 </v>
   <v>      -0.00050780      -0.00248321      -0.00071691 </v>
   <v>      -0.00465306       0.00248241      -0.00344355 </v>
   <v>       0.00092302      -0.00240899      -0.00344465 </v>
   <v>      -0.00072216      -0.00179493      -0.00092240 </v>
   <v>       0.00044794      -0.00012427      -0.00128015 </v>
   <v>      -0.00114243       0.00206743      -0.00435615 </v>
   <v>      -0.00208323       0.00309463      -0.00268862 </v>
   <v>      -0.00133782      -0.00203866       0.00785875 </v>
   <v>       0.00192216      -0.00013526       0.00080043 </v>
   <v>      -0.00128760      -0.00117854       0.00060867 </v>
   <v>      -0.00129341      -0.00066633      -0.00299965 </v>
   <v>       0.00398632      -0.00055934       0.00247487 </v>
   <v>       0.00129369       0.00171830      -0.00198299 </v>
   <v>      -0.00364040       0.00045770       0.00068212 </v>
   <v>       0.00022895      -0.00091992       0.00082193 </v>
   <v>       0.00006495      -0.00095628       0.00217781 </v>
   <v>       0.00215676      -0.00357258      -0.00290208 </v>
   <v>       0.00277380       0.00195896       0.00293950 </v>
   <v>       0.00157627       0.00114702       0.00001297 </v>
   <v>       0.00186938       0.00348938       0.00303815 </v>
   <v>      -0.00163766      -0.00389796       0.00336815 </v>
   <v>       0.00144173       0.00181043      -0.00422656 </v>
   <v>      -0.00089504       0.00076443       0.00035463 </v>
   <v>      -0.00005525      -0.00046657      -0.00257117 </v>
  </varray>
 </structure>
</modeling>
