unknown system                          
           1
    10.211495    0.000000    0.000000
     0.000000   10.211495    0.000000
     0.000000    0.000000   10.211495
   Si
 100
Direct configuration=     1
   0.82678706  0.76971749  0.09252905
   0.82127349  0.89755911  0.90501962
   0.69347554  0.14102361  0.42735735
   0.78908798  0.21776262  0.85880838
   0.29951246  0.99159498  0.40474070
   0.61543204  0.80021062  0.84911510
   0.49963330  0.57907227  0.43685138
   0.50215500  0.54825431  0.21516769
   0.55207971  0.96332794  0.27800247
   0.01358307  0.99547829  0.87686711
   0.18340969  0.19276130  0.43854909
   0.80703294  0.41726086  0.41665317
   0.97421920  0.21556211  0.77452081
   0.76932578  0.31380555  0.63553616
   0.88831915  0.17893081  0.52109741
   0.08024170  0.99320548  0.43113047
   0.04878172  0.08674512  0.62829556
   0.18344635  0.26685450  0.98102194
   0.43893087  0.19819476  0.36456129
   0.59955461  0.72908983  0.29947778
   0.57037617  0.69380649  0.04706389
   0.00579220  0.37888725  0.61513504
   0.61652270  0.24660919  0.99640220
   0.32273860  0.66256968  0.32244627
   0.89730702  0.07858862  0.31329042
   0.01868479  0.37975347  0.12102311
   0.18205724  0.05065059  0.02296473
   0.04240005  0.35504001  0.37788660
   0.29427314  0.44015620  0.07345165
   0.63632037  0.07702451  0.84839179
   0.67120253  0.90515230  0.45739250
   0.18308574  0.13636684  0.81471311
   0.22732836  0.81617911  0.05244054
   0.09307416  0.57792449  0.43270363
   0.23549549  0.29906055  0.24593456
   0.02136894  0.79880168  0.97956428
   0.40805899  0.81380335  0.19419896
   0.73511288  0.57816883  0.21539859
   0.09975562  0.13173672  0.23029653
   0.48913563  0.05332340  0.07311128
   0.77937749  0.65254332  0.90568999
   0.41597938  0.49836629  0.64499689
   0.97229718  0.95066382  0.14847622
   0.89172054  0.58828619  0.57043012
   0.45598415  0.28635304  0.56809016
   0.20390766  0.48821035  0.60244309
   0.86307286  0.25767828  0.22455900
   0.63369800  0.14079510  0.62898519
   0.41659646  0.06890247  0.81280840
   0.79245656  0.07406957  0.06089393
   0.37067009  0.30240307  0.78715849
   0.14366540  0.49791660  0.24515740
   0.25096502  0.93290225  0.82704954
   0.96619191  0.61853485  0.81622805
   0.47776403  0.32142227  0.17841348
   0.02224729  0.83712200  0.73778618
   0.09979749  0.64390425  0.63714734
   0.74277742  0.69862945  0.47950947
   0.11494868  0.61354963  0.01466046
   0.62432368  0.94278604  0.67365930
   0.61623693  0.89854485  0.05201390
   0.32129065  0.09288911  0.62187355
   0.65234744  0.50153412  0.57955424
   0.10995940  0.73047337  0.23155464
   0.45080803  0.46453632  0.92339196
   0.18441881  0.92626686  0.23266514
   0.93365084  0.58139140  0.28685537
   0.17450904  0.27078829  0.64930305
   0.80709769  0.45066503  0.80281007
   0.79841850  0.76772791  0.72777777
   0.58228479  0.30795672  0.77953236
   0.24926925  0.46385822  0.82536813
   0.19910225  0.70471885  0.81230493
   0.58299228  0.71677251  0.61697912
   0.64262422  0.48593721  0.02149855
   0.43249376  0.80082460  0.43067617
   0.41756319  0.84441391  0.94865744
   0.31051020  0.44501211  0.42066696
   0.90263025  0.55246141  0.06136845
   0.62702807  0.55613951  0.79026768
   0.59773431  0.36223356  0.41947468
   0.19618356  0.79243294  0.43168660
   0.82428001  0.01744195  0.71517894
   0.32394072  0.70690518  0.60168360
   0.38233207  0.22400821  0.99014608
   0.63916904  0.16221830  0.19920850
   0.34223303  0.64427645  0.04290265
   0.87299060  0.96302479  0.49894245
   0.40463844  0.64911099  0.81361176
   0.77068485  0.92356365  0.23944536
   0.49958472  0.01985801  0.49195882
   0.67746130  0.38057808  0.22490928
   0.42625474  0.86200250  0.69801600
   0.82232522  0.35786708  0.01113364
   0.90766447  0.78380485  0.30493007
   0.98488932  0.17892245  0.03466738
   0.03904048  0.40663790  0.91322701
   0.98944865  0.80215892  0.51867634
   0.19370413  0.91360206  0.60729156
   0.33539121  0.10138613  0.19453492
Direct configuration=     2
   0.82895269  0.76827717  0.09209448
   0.82364073  0.89652577  0.90724611
   0.69257781  0.14338863  0.42824980
   0.78659767  0.21308382  0.86145490
   0.29631751  0.99453423  0.40521604
   0.61672863  0.80036492  0.85060408
   0.50392167  0.57848661  0.43688208
   0.49991869  0.54763013  0.21221977
   0.55177886  0.96476663  0.27534696
   0.01394614  0.99266218  0.87610553
   0.18264501  0.19697087  0.43657060
   0.80658082  0.41684652  0.41757404
   0.97768596  0.21333908  0.77381126
   0.76793397  0.31044812  0.63921622
   0.88703597  0.17791752  0.51769247
   0.07674907  0.99240230  0.43098199
   0.04752854  0.08859308  0.62944943
   0.18165573  0.27258997  0.98306084
   0.43794194  0.19951682  0.36530367
   0.59665610  0.72883089  0.29821134
   0.56868582  0.69662581  0.04881238
   0.00650272  0.37221149  0.61301954
   0.61461028  0.24540908  0.99496255
   0.31983495  0.66201583  0.32701117
   0.90062539  0.07920820  0.31016485
   0.01885080  0.38154506  0.11727194
   0.18663181  0.05184777  0.02264523
   0.03918001  0.35432842  0.37337554
   0.29493267  0.44007217  0.07605619
   0.63607312  0.07778862  0.85097858
   0.67297289  0.91069239  0.45750280
   0.18471034  0.14187891  0.81478576
   0.22469832  0.81697896  0.05468409
   0.09169235  0.57324794  0.43700400
   0.23870006  0.30233539  0.24547079
   0.02275876  0.79989381  0.97940535
   0.40643932  0.81549110  0.19229631
   0.73219373  0.57592158  0.20989735
   0.09878799  0.13254846  0.22483869
   0.48973481  0.05548595  0.07532843
   0.77653514  0.65409758  0.90815336
   0.41641003  0.49986916  0.64423354
   0.97570643  0.94632352  0.15143476
   0.89219588  0.58743499  0.57187639
   0.45433755  0.28737895  0.56862862
   0.20591532  0.48456838  0.60467565
   0.86273193  0.25877176  0.22700917
   0.62956379  0.14124006  0.63135420
   0.41800295  0.06499755  0.81211463
   0.78972087  0.07311411  0.05705577
   0.37596368  0.30485367  0.78670719
   0.14505544  0.49494322  0.24606341
   0.25018944  0.93344380  0.82782855
   0.96848651  0.62088123  0.81550171
   0.47620807  0.32023029  0.17828090
   0.01812103  0.83575980  0.73703516
   0.09909955  0.64482271  0.63859377
   0.74005204  0.69391534  0.47598875
   0.11813540  0.61286760  0.01547878
   0.62687822  0.94290302  0.67554098
   0.62238465  0.89787263  0.04762133
   0.32546675  0.09398948  0.62108925
   0.65314937  0.50252131  0.57789602
   0.10898088  0.72843882  0.22968855
   0.45046176  0.46524817  0.92502224
   0.18244774  0.92713579  0.23097554
   0.93718870  0.58168936  0.28936321
   0.17873858  0.27267415  0.64738432
   0.80937313  0.45110762  0.80513842
   0.79929675  0.76625942  0.72499885
   0.58393337  0.31107669  0.77853462
   0.24998635  0.46003302  0.82405683
   0.20282425  0.70573267  0.81161874
   0.58251503  0.71802529  0.61802257
   0.64447181  0.48401577  0.01980285
   0.43469385  0.80407535  0.43161386
   0.41740638  0.84694836  0.95127647
   0.30969488  0.44359524  0.41843770
   0.89632834  0.55734141  0.06232655
   0.62859147  0.55525482  0.79035562
   0.59792019  0.36187939  0.41827385
   0.19606852  0.79121158  0.43193191
   0.82549027  0.01769320  0.71254838
   0.32737296  0.70569652  0.60227036
   0.38285800  0.21722992  0.99175966
   0.64271506  0.16073876  0.20130576
   0.34414353  0.64514515  0.04449585
   0.87058322  0.96423244  0.49855143
   0.40560958  0.65133497  0.81466393
   0.76778793  0.92764194  0.24113104
   0.49416039  0.01924314  0.49367532
   0.67257398  0.38054121  0.22422047
   0.42710057  0.86340738  0.69802611
   0.82125089  0.35684154  0.01398563
   0.90211773  0.78077860  0.30203207
   0.98717662  0.17939346  0.03488566
   0.03721908  0.40485742  0.91320534
   0.98767902  0.80061545  0.51933625
   0.19230931  0.91365140  0.60336937
   0.33521023  0.09971223  0.19874964
Direct configuration=     3
   0.83076890  0.76691536  0.09163362
   0.82564852  0.89570053  0.90952187
   0.69144609  0.14596748  0.42836776
   0.78467056  0.20844192  0.86390053
   0.29349844  0.99768670  0.40564217
   0.61750290  0.80039133  0.85164107
   0.50797068  0.57776214  0.43696414
   0.49716885  0.54661621  0.20911033
   0.55111884  0.96626255  0.27254439
   0.01432350  0.99075495  0.87549181
   0.18218176  0.20105360  0.43483694
   0.80686044  0.41654159  0.41843795
   0.98101039  0.21180003  0.77377885
   0.76678413  0.30748275  0.64291103
   0.88611525  0.17759240  0.51401052
   0.07306927  0.99193887  0.43021524
   0.04675092  0.08952717  0.63020431
   0.17999891  0.27850404  0.98550410
   0.43684217  0.20089114  0.36607827
   0.59437266  0.72893738  0.29676047
   0.56702684  0.69879649  0.05075938
   0.00588554  0.36635176  0.61057083
   0.61239274  0.24455109  0.99381474
   0.31674059  0.66021968  0.33090720
   0.90404593  0.07963774  0.30752881
   0.01918029  0.38327371  0.11454117
   0.19153406  0.05272718  0.02255546
   0.03516765  0.35317928  0.36905717
   0.29539586  0.43992254  0.07894220
   0.63529121  0.07763995  0.85401540
   0.67464279  0.91558152  0.45752921
   0.18673704  0.14714702  0.81474648
   0.22190382  0.81832693  0.05647670
   0.09039510  0.56878521  0.44139598
   0.24229544  0.30561516  0.24491814
   0.02363170  0.80111501  0.97912481
   0.40492667  0.81764784  0.19022756
   0.72949408  0.57446749  0.20474818
   0.09763492  0.13376729  0.21948340
   0.49049913  0.05734236  0.07686852
   0.77339332  0.65571431  0.91120322
   0.41742572  0.50138061  0.64331963
   0.97924027  0.94177965  0.15378194
   0.89276721  0.58582480  0.57370514
   0.45235943  0.28837872  0.56950398
   0.20831493  0.48004857  0.60687177
   0.86230726  0.26088052  0.22937343
   0.62509287  0.14256159  0.63386803
   0.41981220  0.06144126  0.81204261
   0.78709666  0.07219266  0.05305414
   0.38099471  0.30638859  0.78580998
   0.14714910  0.49278152  0.24637513
   0.24873936  0.93348527  0.82879865
   0.97103832  0.62275769  0.81488043
   0.47390205  0.31902695  0.17815365
   0.01388627  0.83455515  0.73613997
   0.09793880  0.64653770  0.64021227
   0.73751916  0.68929970  0.47162936
   0.12143027  0.61139458  0.01638568
   0.62932605  0.94191918  0.67740152
   0.62948108  0.89757382  0.04373706
   0.32952776  0.09533781  0.61997136
   0.65437104  0.50339065  0.57661163
   0.10780818  0.72575983  0.22777932
   0.45050561  0.46570097  0.92676176
   0.18091567  0.92836556  0.22954664
   0.94045997  0.58102688  0.29183527
   0.18407612  0.27439236  0.64534840
   0.81245693  0.45122299  0.80728464
   0.80037941  0.76484182  0.72118126
   0.58613157  0.31458943  0.77741381
   0.24966404  0.45695195  0.82301720
   0.20635146  0.70683057  0.81154425
   0.58170785  0.71935839  0.61945380
   0.64638960  0.48201788  0.01795869
   0.43720816  0.80793400  0.43304843
   0.41735010  0.84987509  0.95368240
   0.30926956  0.44200198  0.41604862
   0.89035061  0.56243968  0.06340362
   0.62915978  0.55473811  0.79027870
   0.59753446  0.36127962  0.41714197
   0.19556413  0.78982296  0.43202741
   0.82735349  0.01821641  0.71018214
   0.33035808  0.70399044  0.60258451
   0.38363787  0.21045140  0.99339370
   0.64649874  0.15902732  0.20388472
   0.34648753  0.64570050  0.04620022
   0.86759785  0.96553047  0.49835299
   0.40748097  0.65378214  0.81572684
   0.76407863  0.93192940  0.24262926
   0.48864584  0.01870710  0.49569220
   0.66830423  0.38010108  0.22321946
   0.42783884  0.86525728  0.69822131
   0.82009244  0.35569667  0.01715616
   0.89669477  0.77809402  0.29990550
   0.98912921  0.17932666  0.03465054
   0.03497610  0.40375175  0.91165906
   0.98585949  0.79824828  0.51982244
   0.19115556  0.91371343  0.60025303
   0.33448874  0.09781091  0.20311242
Direct configuration=     4
   0.83212017  0.76593516  0.09127386
   0.82723179  0.89503112  0.91160645
   0.69001417  0.14870957  0.42790820
   0.78377281  0.20413633  0.86603986
   0.29091823  1.00092891  0.40596915
   0.61773010  0.80026428  0.85207903
   0.51159458  0.57694584  0.43692670
   0.49395438  0.54529449  0.20597544
   0.55001260  0.96774108  0.26979314
   0.01485389  0.98994104  0.87505924
   0.18194562  0.20487284  0.43331467
   0.80780034  0.41635814  0.41923602
   0.98379939  0.21107925  0.77470774
   0.76604481  0.30495453  0.64651112
   0.88561376  0.17808280  0.51014924
   0.06933957  0.99183578  0.42890460
   0.04656558  0.08947507  0.63031139
   0.17886187  0.28424773  0.98829225
   0.43568797  0.20225595  0.36694062
   0.59266815  0.72938264  0.29508593
   0.56545984  0.70025461  0.05289904
   0.00399369  0.36133506  0.60776459
   0.60988370  0.24414372  0.99310863
   0.31382266  0.65734432  0.33407361
   0.90744921  0.07985262  0.30536950
   0.01955177  0.38511280  0.11296693
   0.19666660  0.05340954  0.02260103
   0.03044712  0.35158545  0.36493363
   0.29574418  0.43986130  0.08191140
   0.63386328  0.07633925  0.85730294
   0.67582191  0.91966712  0.45748414
   0.18924889  0.15200831  0.81469503
   0.21915681  0.82002597  0.05763689
   0.08929189  0.56450068  0.44582787
   0.24614376  0.30850506  0.24433455
   0.02403833  0.80221974  0.97865421
   0.40347826  0.82013454  0.18822724
   0.72702319  0.57388847  0.20025753
   0.09653569  0.13550760  0.21440616
   0.49168142  0.05849393  0.07788108
   0.77010033  0.65735249  0.91442646
   0.41908739  0.50291212  0.64232115
   0.98256631  0.93716684  0.15552847
   0.89330022  0.58348550  0.57587774
   0.45015029  0.28941886  0.57059650
   0.21077372  0.47531683  0.60898339
   0.86181610  0.26399278  0.23161581
   0.62031220  0.14453345  0.63637569
   0.42188315  0.05833994  0.81257181
   0.78478554  0.07135884  0.04908657
   0.38562239  0.30694892  0.78471475
   0.14976549  0.49164506  0.24618490
   0.24655940  0.93312218  0.82985076
   0.97361746  0.62408076  0.81460534
   0.47090693  0.31771577  0.17798868
   0.00974516  0.83361710  0.73512966
   0.09681382  0.64864724  0.64184047
   0.73522189  0.68488091  0.46653991
   0.12465653  0.60918662  0.01730323
   0.63168320  0.93999323  0.67915568
   0.63721088  0.89786969  0.04054708
   0.33316640  0.09690034  0.61873700
   0.65605643  0.50401106  0.57579813
   0.10647305  0.72259073  0.22593919
   0.45088506  0.46594296  0.92856870
   0.17994055  0.92985984  0.22862516
   0.94326497  0.57936520  0.29417201
   0.19036388  0.27570680  0.64321448
   0.81624456  0.45103213  0.80919484
   0.80150703  0.76344287  0.71657625
   0.58895797  0.31850425  0.77627339
   0.24833519  0.45465888  0.82236694
   0.20952533  0.70800330  0.81203864
   0.58071566  0.72074118  0.62118793
   0.64820474  0.48007857  0.01590270
   0.43985670  0.81212151  0.43478252
   0.41739594  0.85317589  0.95588172
   0.30929211  0.44031482  0.41366200
   0.88518827  0.56724989  0.06454044
   0.62880260  0.55455822  0.79000558
   0.59657016  0.36048636  0.41623301
   0.19457901  0.78836907  0.43197591
   0.82978201  0.01903196  0.70822790
   0.33281515  0.70189482  0.60258045
   0.38419973  0.20406895  0.99477081
   0.65042155  0.15721382  0.20678199
   0.34910294  0.64600986  0.04798004
   0.86442505  0.96673091  0.49832839
   0.41033184  0.65632453  0.81682613
   0.75991030  0.93625405  0.24384548
   0.48352956  0.01817231  0.49782454
   0.66478990  0.37929160  0.22190776
   0.42839423  0.86744955  0.69849511
   0.81896923  0.35434097  0.02055077
   0.89135244  0.77587851  0.29863712
   0.99056852  0.17864460  0.03386872
   0.03223298  0.40345651  0.90847603
   0.98387103  0.79528347  0.51992570
   0.19026869  0.91388767  0.59816275
   0.33329895  0.09570429  0.20746905
Direct configuration=     5
   0.83295507  0.76565646  0.09114013
   0.82840935  0.89445416  0.91325397
   0.68825467  0.15153452  0.42711458
   0.78410622  0.20038422  0.86779105
   0.28844904  1.00412319  0.40621946
   0.61738775  0.79997942  0.85185928
   0.51466007  0.57607131  0.43661107
   0.49037517  0.54374708  0.20295943
   0.54836317  0.96913419  0.26728459
   0.01562824  0.99031947  0.87482190
   0.18185276  0.20834330  0.43195731
   0.80925331  0.41629609  0.41995874
   0.98585850  0.21119939  0.77669212
   0.76587498  0.30285545  0.64990070
   0.88557431  0.17944577  0.50620480
   0.06572307  0.99204228  0.42717236
   0.04700224  0.08849651  0.62966385
   0.17844027  0.28954430  0.99130826
   0.43453575  0.20354270  0.36794215
   0.59145249  0.73013092  0.29316626
   0.56406192  0.70108767  0.05519989
   0.00106963  0.35709143  0.60463602
   0.60714456  0.24427554  0.99289186
   0.31137038  0.65359537  0.33648567
   0.91066339  0.07988623  0.30357133
   0.01984021  0.38718073  0.11252454
   0.20190153  0.05399523  0.02269869
   0.02520797  0.34959608  0.36100423
   0.29607791  0.44005884  0.08473656
   0.63181023  0.07380000  0.86065687
   0.67609074  0.92284326  0.45735400
   0.19228234  0.15636314  0.81473242
   0.21663883  0.82187404  0.05805150
   0.08848618  0.56032557  0.45025995
   0.25008003  0.31065075  0.24378581
   0.02402888  0.80296193  0.97792078
   0.40204469  0.82283170  0.18647454
   0.72464111  0.57416092  0.19669501
   0.09571012  0.13780142  0.20976591
   0.49345949  0.05863210  0.07856284
   0.76676170  0.65894004  0.91741430
   0.42141425  0.50445611  0.64131423
   0.98538386  0.93261301  0.15671667
   0.89366239  0.58047035  0.57835572
   0.44781045  0.29056042  0.57176195
   0.21305106  0.47104491  0.61088811
   0.86126459  0.26795366  0.23371659
   0.61528085  0.14684662  0.63875783
   0.42400286  0.05576647  0.81363857
   0.78294579  0.07069454  0.04538918
   0.38970099  0.30660545  0.78369456
   0.15269551  0.49166582  0.24563653
   0.24366164  0.93246595  0.83087118
   0.97602790  0.62479249  0.81490372
   0.46735254  0.31622010  0.17774733
   0.00588549  0.83309350  0.73406944
   0.09615689  0.65086187  0.64333646
   0.73322027  0.68072050  0.46088082
   0.12768450  0.60635391  0.01816073
   0.63400393  0.93743679  0.68070372
   0.64521213  0.89875813  0.03819567
   0.33610683  0.09864281  0.61766410
   0.65822300  0.50426115  0.57550133
   0.10502341  0.71911907  0.22423232
   0.45149133  0.46600090  0.93037274
   0.17962208  0.93149123  0.22840098
   0.94547276  0.57678736  0.29630949
   0.19724935  0.27636887  0.64100442
   0.82054094  0.45062017  0.81084251
   0.80250607  0.76201635  0.71142109
   0.59241113  0.32281889  0.77526633
   0.24615709  0.45311769  0.82222832
   0.21224684  0.70921099  0.81305379
   0.57969412  0.72210743  0.62309986
   0.64978892  0.47831693  0.01358349
   0.44246164  0.81633309  0.43660350
   0.41756307  0.85681537  0.95788688
   0.30977880  0.43860710  0.41147030
   0.88131815  0.57124520  0.06564869
   0.62769471  0.55466221  0.78955743
   0.59508748  0.35959355  0.41564639
   0.19306800  0.78696105  0.43178873
   0.83264441  0.02015517  0.70680597
   0.33470215  0.69957499  0.60225583
   0.38414903  0.19848068  0.99565438
   0.65439730  0.15541184  0.20979701
   0.35180668  0.64616097  0.04979324
   0.86149211  0.96770802  0.49847503
   0.41414484  0.65886188  0.81797185
   0.75565668  0.94045537  0.24473788
   0.47929062  0.01760192  0.49988799
   0.66208650  0.37820442  0.22029462
   0.42865223  0.86983441  0.69871584
   0.81801166  0.35269959  0.02407859
   0.88607586  0.77416441  0.29827549
   0.99135873  0.17735750  0.03242136
   0.02899301  0.40395826  0.90376619
   0.98161493  0.79194774  0.51947346
   0.18966996  0.91423434  0.59720829
   0.33180147  0.09345781  0.21162051
Direct configuration=     6
   0.83329167  0.76635372  0.09134439
   0.82929381  0.89391211  0.91422314
   0.68619529  0.15434342  0.42625578
   0.78559082  0.19727805  0.86909138
   0.28599369  1.00713021  0.40650439
   0.61646193  0.79956489  0.85104575
   0.51707754  0.57515650  0.43592015
   0.48656175  0.54203247  0.20019562
   0.54608760  0.97038520  0.26520314
   0.01667832  0.99188027  0.87478012
   0.18180525  0.21142283  0.43072550
   0.81102230  0.41634483  0.42059376
   0.98718863  0.21205774  0.77961224
   0.76640028  0.30110734  0.65296359
   0.88598505  0.18163347  0.50224291
   0.06240242  0.99245466  0.42517399
   0.04801663  0.08680161  0.62833262
   0.17869277  0.29421639  0.99439331
   0.43342793  0.20467341  0.36911967
   0.59061091  0.73116610  0.29099992
   0.56292310  0.70148686  0.05760247
  -0.00252626  0.35351773  0.60127574
   0.60427083  0.24497837  0.99312181
   0.30954678  0.64921797  0.33816845
   0.91348295  0.07982228  0.30195172
   0.01994922  0.38951637  0.11302055
   0.20709023  0.05454054  0.02279207
   0.01975774  0.34731347  0.35729833
   0.29651840  0.44068471  0.08717521
   0.62931687  0.07012279  0.86393801
   0.67511805  0.92506039  0.45710007
   0.19581177  0.16015446  0.81494196
   0.21449265  0.82370557  0.05768722
   0.08805528  0.55618374  0.45463567
   0.25390669  0.31178686  0.24333632
   0.02364092  0.80315211  0.97686389
   0.40057251  0.82563848  0.18507231
   0.72216036  0.57517288  0.19425610
   0.09533022  0.14060837  0.20567955
   0.49590830  0.05762009  0.07906977
   0.76345219  0.66038507  0.91983448
   0.42439047  0.50597174  0.64037380
   0.98748627  0.92822145  0.15740960
   0.89375785  0.57685640  0.58109898
   0.44543550  0.29186810  0.57285060
   0.21501277  0.46781980  0.61242522
   0.86060706  0.27249356  0.23564562
   0.61008679  0.14920760  0.64094670
   0.42589955  0.05376322  0.81514976
   0.78171095  0.07030821  0.04220570
   0.39313885  0.30550021  0.78300843
   0.15574019  0.49285488  0.24491327
   0.24012729  0.93164456  0.83176253
   0.97813690  0.62489250  0.81594868
   0.46344856  0.31448148  0.17738806
   0.00244768  0.83312908  0.73304251
   0.09625681  0.65301222  0.64459823
   0.73158245  0.67684486  0.45483433
   0.13043044  0.60303820  0.01889279
   0.63636094  0.93463052  0.68195725
   0.65306711  0.90004273  0.03675297
   0.33814074  0.10051263  0.61704179
   0.66084693  0.50405777  0.57572394
   0.10350268  0.71553396  0.22268726
   0.45218332  0.46587280  0.93208544
   0.17999207  0.93311818  0.22896749
   0.94698518  0.57348388  0.29820462
   0.20429358  0.27610695  0.63875115
   0.82507982  0.45009230  0.81222737
   0.80320801  0.76050612  0.70591248
   0.59638600  0.32751984  0.77456657
   0.24336044  0.45224057  0.82271167
   0.21449402  0.71038048  0.81455568
   0.57878131  0.72335896  0.62504994
   0.65108481  0.47681593  0.01096783
   0.44487958  0.82029065  0.43830695
   0.41787643  0.86074048  0.95971679
   0.31070296  0.43693732  0.40967332
   0.87911835  0.57398836  0.06662854
   0.62607517  0.55500121  0.78898404
   0.59320189  0.35872919  0.41541620
   0.19105089  0.78569690  0.43144981
   0.83578829  0.02158955  0.70599778
   0.33601345  0.69722129  0.60164675
   0.38324380  0.19398296  0.99590558
   0.65835402  0.15372672  0.21271622
   0.35440519  0.64625211  0.05158196
   0.85915844  0.96840918  0.49878604
   0.41879127  0.66132633  0.81916856
   0.75166784  0.94440149  0.24530366
   0.47630025  0.01701507  0.50173602
   0.66015578  0.37696149  0.21841888
   0.42849033  0.87226710  0.69875354
   0.81733051  0.35074577  0.02763277
   0.88089728  0.77290341  0.29883470
   0.99144501  0.17555410  0.03020237
   0.02540030  0.40511348  0.89786828
   0.97902371  0.78842302  0.51834803
   0.18937523  0.91477059  0.59738880
   0.33022734  0.09118624  0.21533317
Direct configuration=     7
   0.83320324  0.76814475  0.09195875
   0.83005117  0.89336281  0.91429510
   0.68390610  0.15703666  0.42560590
   0.78792806  0.19480810  0.86990313
   0.28350955  1.00983190  0.40701271
   0.61497795  0.79906739  0.84981976
   0.51879979  0.57422410  0.43483466
   0.48268522  0.54018826  0.19781154
   0.54316100  0.97145581  0.26372962
   0.01797545  0.99451107  0.87493314
   0.18169843  0.21410574  0.42958452
   0.81288029  0.41649669  0.42113403
   0.98794633  0.21346029  0.78318394
   0.76768928  0.29956877  0.65557841
   0.88676878  0.18447674  0.49831011
   0.05954504  0.99293945  0.42308280
   0.04950805  0.08470651  0.62650090
   0.17940099  0.29817048  0.99736718
   0.43238855  0.20556571  0.37048874
   0.59001869  0.73250109  0.28860301
   0.56213005  0.70167576  0.06003164
  -0.00639644  0.35052921  0.59781916
   0.60137491  0.24620466  0.99370386
   0.30839813  0.64449212  0.33920427
   0.91571317  0.07976300  0.30029661
   0.01981487  0.39209812  0.11415776
   0.21206457  0.05504214  0.02287360
   0.01453205  0.34487754  0.35390842
   0.29718146  0.44187568  0.08901278
   0.62669776  0.06556190  0.86705700
   0.67277326  0.92633141  0.45667939
   0.19974995  0.16336256  0.81538192
   0.21280785  0.82540050  0.05658282
   0.08802152  0.55202154  0.45887410
   0.25737736  0.31176773  0.24305056
   0.02289989  0.80267970  0.97544585
   0.39901688  0.82844998  0.18407864
   0.71944622  0.57676221  0.19301278
   0.09550561  0.14386116  0.20219474
   0.49897281  0.05554596  0.07944241
   0.76022722  0.66159601  0.92148526
   0.42798324  0.50740062  0.63957409
   0.98879825  0.92407704  0.15769708
   0.89355503  0.57274504  0.58406775
   0.44313542  0.29340630  0.57372172
   0.21660159  0.46604172  0.61348285
   0.85971150  0.27725802  0.23732501
   0.60483375  0.15141452  0.64293405
   0.42727826  0.05235248  0.81698510
   0.78118979  0.07033637  0.03975736
   0.39594655  0.30381090  0.78288152
   0.15873744  0.49508982  0.24421142
   0.23609670  0.93077723  0.83246264
   0.97988853  0.62446104  0.81780419
   0.45949851  0.31245378  0.17686173
  -0.00048289  0.83380918  0.73211562
   0.09723895  0.65501929  0.64558866
   0.73037144  0.67325522  0.44858334
   0.13286028  0.59939179  0.01944622
   0.63882957  0.93194801  0.68284981
   0.66031167  0.90141417  0.03623113
   0.33916602  0.10241489  0.61709364
   0.66385874  0.50337762  0.57645385
   0.10192623  0.71201598  0.22130891
   0.45281128  0.46555755  0.93361268
   0.18096915  0.93458299  0.23029796
   0.94775263  0.56970500  0.29983092
   0.21107948  0.27473369  0.63648434
   0.82951473  0.44955820  0.81334951
   0.80347692  0.75884804  0.70019781
   0.60067971  0.33257351  0.77432772
   0.24019851  0.45192140  0.82388354
   0.21632201  0.71140236  0.81651168
   0.57807010  0.72437636  0.62688861
   0.65211733  0.47562337  0.00804537
   0.44699925  0.82372253  0.43973474
   0.41834107  0.86486792  0.96138329
   0.31201005  0.43534151  0.40844327
   0.87876870  0.57524158  0.06740697
   0.62418239  0.55554870  0.78833266
   0.59105088  0.35803966  0.41551821
   0.18861410  0.78463243  0.43091982
   0.83906225  0.02332595  0.70582947
   0.33676897  0.69501869  0.60078923
   0.38146554  0.19070399  0.99551604
   0.66221834  0.15226345  0.21532620
   0.35670396  0.64639304  0.05324308
   0.85761784  0.96882771  0.49923876
   0.42404082  0.66366869  0.82042988
   0.74822587  0.94797578  0.24557140
   0.47476848  0.01649867  0.50326561
   0.65887416  0.37568604  0.21634934
   0.42781195  0.87462306  0.69849863
   0.81699878  0.34850135  0.03107980
   0.87588631  0.77201985  0.30028487
   0.99084934  0.17336662  0.02718164
   0.02176301  0.40672124  0.89128264
   0.97606979  0.78483386  0.51648995
   0.18939738  0.91545948  0.59861173
   0.32883332  0.08904348  0.21837345
Direct configuration=     8
   0.83279178  0.77090197  0.09300377
   0.83085825  0.89278771  0.91328978
   0.68146869  0.15951679  0.42541495
   0.79070761  0.19292645  0.87020589
   0.28102004  1.01214692  0.40797970
   0.61300542  0.79855514  0.84842665
   0.51983493  0.57330430  0.43338804
   0.47896072  0.53822595  0.19593017
   0.53964495  0.97233430  0.26304594
   0.01944722  0.99802385  0.87527957
   0.18143092  0.21640957  0.42849724
   0.81459077  0.41675937  0.42159436
   0.98838448  0.21518034  0.78703527
   0.76973608  0.29807035  0.65764921
   0.88780655  0.18770533  0.49442221
   0.05727343  0.99334864  0.42107590
   0.05133403  0.08255876  0.62437758
   0.18027261  0.30135650  1.00007416
   0.43142703  0.20613565  0.37203879
   0.58954609  0.73417577  0.28603050
   0.56176062  0.70185431  0.06239315
  -0.01016616  0.34808923  0.59442807
   0.59855893  0.24784819  0.99451707
   0.30790309  0.63973774  0.33971505
   0.91720486  0.07981143  0.29839117
   0.01941615  0.39485822  0.11564337
   0.21662126  0.05543381  0.02296130
   0.01005947  0.34243635  0.35099763
   0.29814225  0.44369491  0.09011854
   0.62432149  0.06044381  0.86996333
   0.66918178  0.92671913  0.45607823
   0.20395729  0.16599015  0.81609591
   0.21160677  0.82687994  0.05483154
   0.08833405  0.54782106  0.46286921
   0.26019684  0.31059876  0.24297944
   0.02184028  0.80150496  0.97365186
   0.39732998  0.83115946  0.18352459
   0.71649019  0.57873960  0.19288785
   0.09626493  0.14748738  0.19928495
   0.50247330  0.05270056  0.07959179
   0.75716588  0.66250218  0.92232938
   0.43213266  0.50869260  0.63897975
   0.98938482  0.92025365  0.15770216
   0.89309117  0.56825862  0.58723030
   0.44102657  0.29523520  0.57426606
   0.21782568  0.46582379  0.61406701
   0.85836549  0.28185669  0.23862012
   0.59962948  0.15336687  0.64476328
   0.42786283  0.05153636  0.81900093
   0.78145371  0.07091813  0.03821912
   0.39822905  0.30173218  0.78347382
   0.16156227  0.49811964  0.24369483
   0.23174583  0.92996790  0.83294248
   0.98129297  0.62365899  0.82040609
   0.45587970  0.31011125  0.17611086
  -0.00287690  0.83513770  0.73131860
   0.09908426  0.65688036  0.64633688
   0.72960536  0.66991310  0.44231197
   0.13497418  0.59557679  0.01978162
   0.64147201  0.92971499  0.68332803
   0.66649927  0.90253176  0.03662277
   0.33923754  0.10416754  0.61791499
   0.66716227  0.50225117  0.57764271
   0.10028111  0.70874468  0.22007212
   0.45323865  0.46505961  0.93486728
   0.18236218  0.93570543  0.23224669
   0.94779148  0.56570026  0.30117949
   0.21724904  0.27231533  0.63422147
   0.83339262  0.44912425  0.81416877
   0.80325421  0.75699695  0.69438732
   0.60504351  0.33789597  0.77466487
   0.23690565  0.45206337  0.82574105
   0.21783880  0.71215315  0.81888598
   0.57759115  0.72505125  0.62845586
   0.65297319  0.47476503  0.00485365
   0.44872378  0.82635747  0.44077940
   0.41893821  0.86907288  0.96288024
   0.31363642  0.43381568  0.40789927