BEGIN_CFG
 Size
    100
 Supercell
        11.562861      0.000000      0.000000
         0.000000     11.562861      0.000000
         0.000000      0.000000     11.562861
 AtomData:  id type       cartes_x      cartes_y      cartes_z           fx          fy          fz
             1    0      10.448390      7.825890     10.814360     1.270148    1.431043    3.616281
             2    0       4.253530      6.918180     10.821840    -1.405432    0.520605   -0.817862
             3    0       1.709970      9.207370      3.569030    -0.238260    0.838057   -0.614875
             4    0       1.400430      0.339970      5.389450     1.235402   -1.285959   -1.747482
             5    0       3.867380     11.088710      1.156670     1.917465   -0.080003   -0.388622
             6    0       4.935040      0.235490      5.635560    -0.742116    0.832213   -0.374729
             7    0       0.757250      6.117380     10.906860     3.125382   -1.019199    1.362376
             8    0       3.819050      9.923940     10.120290    -3.196065   -1.125729    2.435827
             9    0       9.718500      5.258470      0.422950    -1.947399    0.744582    2.010866
            10    0       3.625100      8.777580      5.791560    -1.128863    0.314210   -2.177970
            11    0       6.364830      5.683200      0.587160    -2.120861   -2.754838    1.974665
            12    0       8.743510     11.089310     10.305790     0.835450    1.076463   -2.738970
            13    0      11.473530     10.769280     10.387780     1.345856   -1.813156    1.017240
            14    0      10.782970     11.165950      6.749130    -0.564404    0.617524    3.159847
            15    0       0.964050      3.551360      1.793450    -0.347181    1.237748   -0.271544
            16    0       5.656980      7.125640      4.050880    -1.609081   -1.055565    0.030723
            17    0       0.345860      2.883050      4.671340    -1.031659   -0.934098   -0.963720
            18    0      10.520870      5.161190      3.878820    -1.020912    0.267417   -0.279249
            19    0       4.269690      3.287360      9.457680    -1.941267   -1.391187    1.118838
            20    0       6.811300     11.252690      7.228750     1.744520   -1.078807    1.200721
            21    0       0.617380      8.871200      6.047210    -0.328533    0.028795    1.517887
            22    0       4.703790      8.632610      7.929350     1.685361   -3.908461    0.970477
            23    0       9.098110      0.805200      4.985350     0.541302    0.233746   -0.388504
            24    0       9.667410      4.687180      6.615760    -0.121989   -1.004857    0.283226
            25    0      11.297150      6.108700      8.499020     0.662793    1.338305   -0.150885
            26    0       6.290220      9.706890     10.003350     1.554678   -1.837017   -2.021064
            27    0       2.354130      1.241870      2.639920    -2.064245   -2.365201    2.171447
            28    0       7.858160      8.112860      8.047520     0.698164    0.985672   -0.334033
            29    0       1.703710      8.372400      9.252450    -0.073641   -1.368026    0.125532
            30    0       9.984430      8.162650      3.867540     1.586621    0.460638   -0.095010
            31    0      11.238860      1.654200      9.857010     0.640735   -0.306004   -2.431383
            32    0       2.605180      8.745860      0.780990    -1.720292   -0.900425   -0.599959
            33    0       5.292310      1.926800      0.479450    -1.283924    0.989120   -0.441305
            34    0       7.059190     10.350890      4.504020    -0.640718   -0.856184    0.316282
            35    0       1.539440      1.772590      7.322570     0.134198    0.014867    1.663783
            36    0       8.228810      3.402610      3.622340     0.039703    0.432052    0.675765
            37    0       5.811600      8.563980      0.935330    -0.642413   -0.186264    0.477492
            38    0       6.017410      1.907450      8.514130     2.643344    1.170038   -2.617375
            39    0       8.837350      0.674990      1.236440    -0.482698   -0.414691    1.896649
            40    0       2.633850      4.297210      7.191200     2.581576   -0.012920   -0.393847
            41    1       7.234640      2.816590      1.259250     1.203976    1.273695    0.460121
            42    1       9.648870      8.096890      1.433690    -0.036725   -0.851576    0.565669
            43    1       3.987950      2.276890      6.779580     0.717550   -0.633797    1.824100
            44    1       7.310680      0.979500      3.371650    -0.142507    0.943585   -0.446235
            45    1       3.977040      8.298170      2.704950     0.494273    0.807238    1.471630
            46    1       1.179540     10.395550      8.333170     0.709832    1.821236   -1.176174
            47    1       9.184980      6.572780      9.500130    -2.026607    0.350163   -1.404608
            48    1       4.114970      6.189000      6.503370    -0.294362    0.623220   -0.020634
            49    1      11.315660      0.932720      0.446480     0.102016    0.395962    2.604232
            50    1       2.744870      5.995700      8.929350     0.125323   -0.278274    1.201581
            51    1       7.381550      5.848780      2.728120     1.348048    0.383366    0.613687
            52    1       5.894310      3.995920      3.216230     0.891514    0.998288   -3.771976
            53    1       6.311600     11.536160     11.393450     1.338092    0.330736   -0.152842
            54    1       1.490590     11.000030      1.186210    -1.806349   -0.463513    0.030106
            55    1       9.197190      2.548560      8.542180    -1.611395   -0.920138   -0.226586
            56    1       4.176880     10.733130      7.856930    -1.500587    2.725292   -2.167728
            57    1       9.673780      7.386860      6.245090     0.245646   -0.518420    0.316557
            58    1       4.038160      5.135570      4.411540    -0.195332    0.609141   -0.486449
            59    1       0.347930      6.704160      5.219570    -0.473380   -0.466258   -1.088240
            60    1      11.160620      0.805720      2.859090     0.600374    0.019061    1.165360
            61    1       7.556220      4.653650      7.909910    -0.602648    0.504034   -0.524056
            62    1       5.152760      3.353900      4.976080     0.054744   -2.748038    2.364917
            63    1       6.256990      6.708380      7.134280     0.171607   -0.663039   -0.343916
            64    1       4.937330      1.315790      3.406100    -0.146387    0.415756   -0.892250
            65    1       4.309730     10.465720      3.579720     0.054079    0.077068    0.464864
            66    1       1.786160      6.892540      7.022050     1.156930    0.587043    0.018644
            67    1       3.004680      2.503920      4.771560    -0.943820    0.470820   -0.989609
            68    1       8.719170      4.481170      9.703990     1.709696   -1.982959    2.337547
            69    1       0.601690      4.778870      6.577220    -1.428968   -0.520997   -1.835276
            70    1       4.857010      0.405320      9.617800    -0.247236    1.103324    1.530363
            71    1       3.544200      6.450360      1.530630    -0.255564   -1.631852   -0.108501
            72    1      11.052950     10.419410      4.481190    -0.847855    0.093698   -1.739854
            73    1       1.696600      4.785210      4.081620     0.727876   -2.166679    1.013690
            74    1       2.226200      1.817790      0.200640    -0.106036   -0.437831    0.695674
            75    1       7.814830      7.778190      4.524130     0.089219    0.344353    1.428741
            76    1       7.857190      5.666910      5.652770    -1.104189   -0.353262   -1.162905
            77    1       2.658800      4.007830     11.340480     0.583632    2.158545    1.047239
            78    1       5.160860      5.247700      9.023500    -0.931512    1.079862   -1.912144
            79    1       7.878000      2.820700      6.061560    -0.222738   -0.010309    0.518667
            80    1       7.920930      9.222080      2.573780     0.401322   -1.185828    1.344692
            81    1       6.380540     10.820240      1.950540    -0.874208    0.812966    1.286149
            82    1       8.974070      9.685970      6.244120    -0.409163   -0.111495   -0.695755
            83    1       1.786540      3.097410      9.513210    -0.471067    1.007283   -0.331368
            84    1      10.585570     10.215070      1.954750    -0.080878   -0.094171   -0.493504
            85    1      10.690980      2.140650      6.763840    -0.388411   -0.241489   -0.650948
            86    1      11.260460      3.642530      8.571050     0.151971    1.214995   -0.738904
            87    1       9.609180      2.481360     11.393810    -1.703258    0.351183    0.601894
            88    1       2.453280      6.886860      4.044870     1.504925    1.607705    0.860606
            89    1      10.325350      9.052340      9.085160    -0.368429    1.353165   -4.370618
            90    1       7.643530      2.025670     10.500980    -0.532411   -1.377149   -0.031842
            91    1       5.593320      4.187930      6.980050    -0.635822   -0.299564   -0.318210
            92    1       3.569130      2.913130      1.951450     1.388640    2.980376    0.306809
            93    1       6.592710      4.032750     10.503230    -0.692621   -0.053368   -0.226628
            94    1      11.189810      3.935410     11.076970     3.303131   -0.434863   -0.987662
            95    1      10.147630      2.879120      2.202700    -0.173797    0.273364   -0.137572
            96    1       6.496270      6.649920      9.865700     2.021636    1.783367   -0.374021
            97    1       7.923340      7.126600      0.120490     1.369670    2.237729   -0.442050
            98    1       0.815340      6.158680      2.666240    -1.249493    1.603768   -2.575575
            99    1       8.052670      9.811240      0.463850     0.673051   -0.979452   -0.191407
           100    1       2.465720      0.864010      9.789500    -0.168126   -1.737966   -1.255277
 Energy
       -698.243178540000
 PlusStress:  xx          yy          zz          yz          xz          xy
        -6.18840    10.20597     0.79973     7.86620     7.19263     5.42055
 Feature   EFS_by	VASP
 Feature   mindist	2.014735
END_CFG

BEGIN_CFG
 Size
    100
 Supercell
        11.562861      0.000000      0.000000
         0.000000     11.562861      0.000000
         0.000000      0.000000     11.562861
 AtomData:  id type       cartes_x      cartes_y      cartes_z           fx          fy          fz
             1    0      10.455540      7.834160     10.834190     1.133334    1.484828    2.703403
             2    0       4.245650      6.921080     10.817220    -1.218943    0.445036   -0.749776
             3    0       1.708570      9.212200      3.565530    -0.256422    0.851322   -0.593926
             4    0       1.407430      0.332630      5.379610     1.142863   -1.236375   -1.547070
             5    0       3.878140     11.088280      1.154470     1.665126   -0.055721   -0.358738
             6    0       4.930820      0.240290      5.633400    -0.686254    0.849210   -0.369050
             7    0       0.774990      6.111600     10.914680     2.918421   -0.938741    1.361118
             8    0       3.801120      9.917710     10.133840    -2.774839   -0.903334    1.991808
             9    0       9.707660      5.262500      0.434260    -1.611145    0.506015    1.767231
            10    0       3.618700      8.779420      5.779270    -1.040832    0.363555   -1.948926
            11    0       6.352980      5.667810      0.598260    -1.782883   -2.336734    1.747164
            12    0       8.748270     11.095400     10.290230     0.793751    0.984288   -2.579003
            13    0      11.481180     10.759020     10.393600     1.264361   -1.665964    0.989228
            14    0      10.779790     11.169420      6.767010    -0.501713    0.553276    2.897418
            15    0       0.962110      3.558400      1.791890    -0.283992    1.182116   -0.278122
            16    0       5.647880      7.119590      4.051090    -1.463853   -1.045726    0.055074
            17    0       0.339900      2.877670      4.665840    -1.060501   -0.962171   -0.929098
            18    0      10.515060      5.162740      3.877190    -0.947919    0.284491   -0.316481
            19    0       4.258750      3.279510      9.464020    -1.731671   -1.247887    1.037863
            20    0       6.821210     11.246520      7.235610     1.637081   -1.059906    1.159937
            21    0       0.615430      8.871390      6.055830    -0.396223    0.046337    1.434934
            22    0       4.713160      8.610940      7.934850     1.386554   -3.148116    0.905105
            23    0       9.101200      0.806490      4.983120     0.527625    0.181553   -0.379281
            24    0       9.666610      4.681470      6.617350    -0.238469   -0.942388    0.258112
            25    0      11.300890      6.116390      8.498190     0.599624    1.355668   -0.120601
            26    0       6.298890      9.696550      9.991950     1.308038   -1.621555   -1.818501
            27    0       2.342620      1.228700      2.652060    -1.721035   -1.967745    1.851391
            28    0       7.862140      8.118510      8.045560     0.670245    0.981669   -0.381599
            29    0       1.703190      8.364720      9.253100    -0.161477   -1.191672    0.056385
            30    0       9.993420      8.165250      3.867050     1.474440    0.427462   -0.051221
            31    0      11.242410      1.652370      9.843460     0.508296   -0.371809   -2.022179
            32    0       2.595360      8.740700      0.777670    -1.657572   -0.888566   -0.474602
            33    0       5.285040      1.932500      0.476980    -1.159537    1.011840   -0.368266
            34    0       7.055510     10.346030      4.505810    -0.638558   -0.792610    0.296132
            35    0       1.540210      1.772620      7.331960     0.130291   -0.051724    1.498620
            36    0       8.229020      3.405100      3.626220     0.015814    0.440114    0.673954
            37    0       5.807960      8.562910      0.938030    -0.590737   -0.188074    0.435322
            38    0       6.032360      1.914080      8.499300     2.435406    1.060605   -2.422608
            39    0       8.834580      0.672590      1.247220    -0.470315   -0.445805    1.790506
            40    0       2.648330      4.297210      7.188870     2.243854    0.065670   -0.470684
            41    1       7.245430      2.828020      1.263260     1.102867    1.178844    0.346826
            42    1       9.648540      8.089140      1.438950    -0.029696   -0.855678    0.642850
            43    1       3.994210      2.271060      6.795940     0.551155   -0.680430    1.671436
            44    1       7.309450      0.988020      3.367710    -0.112106    0.906145   -0.368266
            45    1       3.981440      8.305300      2.717920     0.431660    0.671889    1.203894
            46    1       1.185970     10.411850      8.322670     0.701362    1.653779   -1.036895
            47    1       9.167150      6.576040      9.487770    -1.655855    0.384828   -1.146591
            48    1       4.112350      6.194630      6.503130    -0.253697    0.601465   -0.055703
            49    1      11.316390      0.936480      0.469400    -0.022946    0.489218    2.119098
            50    1       2.745900      5.993110      8.940140     0.058695   -0.318439    1.115789
            51    1       7.393780      5.852330      2.733600     1.334623    0.420826    0.550736
            52    1       5.901700      4.004540      3.183350     0.452724    0.725741   -2.909525
            53    1       6.323710     11.538960     11.392100     1.308042    0.195513   -0.120726
            54    1       1.474570     10.995790      1.186550    -1.554820   -0.488027    0.073870
            55    1       9.182770      2.540220      8.540080    -1.463377   -0.902387   -0.249876
            56    1       4.163520     10.756860      7.837850    -1.324096    2.082629   -1.769502
            57    1       9.676020      7.382160      6.247970     0.248478   -0.517331    0.320128
            58    1       4.036700      5.140650      4.407190     0.002903    0.313040   -0.442999
            59    1       0.343840      6.700070      5.209790    -0.324310   -0.371668   -1.022419
            60    1      11.166040      0.805900      2.869710     0.575055    0.018325    1.178272
            61    1       7.551060      4.658190      7.905630    -0.405582    0.474406   -0.215510
            62    1       5.153640      3.329670      4.995970     0.285860   -2.278449    1.362762
            63    1       6.258580      6.702430      7.131150     0.192033   -0.619092   -0.344450
            64    1       4.935940      1.319530      3.398020    -0.171697    0.395718   -0.876471
            65    1       4.310200     10.466540      3.583940     0.045889    0.154724    0.466560
            66    1       1.796500      6.897740      7.022120     1.048200    0.504131   -0.044334
            67    1       2.996270      2.508130      4.762860    -0.818097    0.430511   -0.800946
            68    1       8.734460      4.463480      9.724800     1.546625   -1.767872    2.059221
            69    1       0.589200      4.774150      6.560770    -1.106054   -0.512512   -1.678645
            70    1       4.854840      0.415170      9.631420    -0.191592    0.979452    1.338376
            71    1       3.541930      6.435800      1.529730    -0.220736   -1.451507   -0.049824
            72    1      11.045320     10.420310      4.465790    -0.794940    0.120721   -1.476064
            73    1       1.702980      4.766420      4.090300     0.586015   -1.589959    0.681560
            74    1       2.225360      1.813950      0.206800    -0.022565   -0.340085    0.586318
            75    1       7.815640      7.781310      4.537080     0.082463    0.330721    1.402610
            76    1       7.847340      5.663600      5.642270    -0.990342   -0.411129   -1.121580
            77    1       2.664040      4.027190     11.349910     0.543308    1.984613    0.987476
            78    1       5.152600      5.257490      9.006560    -0.792240    1.063076   -1.639023
            79    1       7.876000      2.820600      6.066250    -0.215767   -0.022054    0.509407
            80    1       7.924410      9.211510      2.585710     0.302735   -1.049438    1.146990
            81    1       6.372780     10.827410      1.962030    -0.756726    0.686166    1.165911
            82    1       8.970470      9.685010      6.237860    -0.329779   -0.080713   -0.657234
            83    1       1.782390      3.106460      9.510420    -0.389966    0.945022   -0.192392
            84    1      10.584820     10.214240      1.950250    -0.091738   -0.082462   -0.507903
            85    1      10.687480      2.138490      6.758030    -0.372559   -0.216309   -0.572073
            86    1      11.261640      3.653400      8.564330     0.030445    1.094769   -0.735746
            87    1       9.594370      2.484750     11.399170    -1.274140    0.475218    0.528698
            88    1       2.466450      6.900920      4.052520     1.176753    1.257269    0.754704
            89    1      10.322150      9.063980      9.046470    -0.268602    0.944633   -3.720472
            90    1       7.638620      2.013260     10.500700    -0.576399   -1.302012   -0.028507
            91    1       5.587600      4.185290      6.977260    -0.586999   -0.245129   -0.260957
            92    1       3.581170      2.939450      1.954430     1.030198    2.511070    0.427387
            93    1       6.586460      4.032340     10.501100    -0.653446   -0.008225   -0.279942
            94    1      11.219040      3.931500     11.068350     2.791286   -0.412862   -0.765615
            95    1      10.146060      2.881590      2.201480    -0.159551    0.254010   -0.120871
            96    1       6.514100      6.665670      9.862350     1.678090    1.490464   -0.345471
            97    1       7.935080      7.146260      0.116600     0.930511    1.820255   -0.365032
            98    1       0.804450      6.172810      2.643630    -0.947613    1.339091   -2.083147
            99    1       8.058760      9.802540      0.462120     0.656733   -0.847832   -0.177706
           100    1       2.464090      0.848510      9.778270    -0.232637   -1.543978   -1.138256
 Energy
       -701.560361950000
 PlusStress:  xx          yy          zz          yz          xz          xy
       -20.92745    -7.52803   -14.79968     9.09804     7.03266     4.63665
 Feature   EFS_by	VASP
 Feature   mindist	2.073797
END_CFG

BEGIN_CFG
 Size
    100
 Supercell
        11.562861      0.000000      0.000000
         0.000000     11.562861      0.000000
         0.000000      0.000000     11.562861
 AtomData:  id type       cartes_x      cartes_y      cartes_z           fx          fy          fz
             1    0      10.475650      7.859260     10.884580     0.894544    1.431328    0.905845
             2    0       4.223960      6.929040     10.804100    -0.775515    0.286786   -0.551536
             3    0       1.704230      9.226760      3.555280    -0.296926    0.887065   -0.545495
             4    0       1.427410      0.311220      5.352280     0.910783   -1.094619   -1.020304
             5    0       3.907710     11.087230      1.148190     1.022997   -0.003544   -0.274151
             6    0       4.918780      0.254820      5.627030    -0.535776    0.892714   -0.340427
             7    0       0.825820      6.095220     10.938040     2.326423   -0.676317    1.359698
             8    0       3.751730      9.901270     10.169910    -1.800515   -0.411682    1.027638
             9    0       9.678630      5.272270      0.465630    -0.849870    0.070763    1.242265
            10    0       3.600450      8.785470      5.744910    -0.808564    0.497904   -1.346111
            11    0       6.320870      5.625900      0.629230    -1.119118   -1.483546    1.272057
            12    0       8.762060     11.112650     10.245300     0.683112    0.737666   -2.188644
            13    0      11.503200     10.729840     10.410620     1.043934   -1.295940    0.839291
            14    0      10.770930     11.179160      6.817820    -0.361629    0.401594    2.262411
            15    0       0.956960      3.578900      1.787160    -0.149395    1.020410   -0.277619
            16    0       5.622180      7.101590      4.051950    -1.066211   -1.014171    0.122805
            17    0       0.321790      2.861300      4.649730    -1.115206   -1.001862   -0.828035
            18    0      10.498470      5.167530      3.871890    -0.772670    0.306330   -0.418987
            19    0       4.228190      3.257500      9.482130    -1.206903   -0.884150    0.819617
            20    0       6.849710     11.228270      7.255680     1.336249   -0.983379    1.034699
            21    0       0.608880      8.872110      6.080770    -0.567415    0.075892    1.222031
            22    0       4.738210      8.553530      7.950590     0.737022   -1.683742    0.705623
            23    0       9.110300      0.809820      4.976550     0.482272    0.046328   -0.345010
            24    0       9.662980      4.665070      6.621880    -0.511303   -0.766137    0.207964
            25    0      11.311450      6.139600      8.495990     0.456523    1.377992   -0.084086
            26    0       6.322340      9.667830      9.959960     0.734767   -1.093215   -1.282430
            27    0       2.311590      1.193180      2.685150    -0.996629   -1.196192    1.128475
            28    0       7.873730      8.135390      8.039160     0.580741    0.967185   -0.525680
            29    0       1.700760      8.343520      9.254360    -0.366918   -0.779452   -0.093767
            30    0      10.019170      8.172700      3.866030     1.178882    0.342952    0.087463
            31    0      11.251660      1.646240      9.807030     0.179895   -0.497051   -1.130060
            32    0       2.566630      8.725380      0.768990    -1.504071   -0.851096   -0.189290
            33    0       5.264620      1.949780      0.470360    -0.825740    1.038041   -0.190796
            34    0       7.044540     10.332170      4.510940    -0.625559   -0.634271    0.248216
            35    0       1.542470      1.772000      7.358320     0.130738   -0.211628    1.078272
            36    0       8.229370      3.412650      3.637790    -0.051354    0.474771    0.652749
            37    0       5.797590      8.559690      0.945650    -0.471964   -0.180486    0.320969
            38    0       6.074960      1.932760      8.456950     1.929538    0.792258   -1.914259
            39    0       8.826440      0.665070      1.278360    -0.429422   -0.506910    1.493983
            40    0       2.688260      4.297970      7.181110     1.475508    0.201408   -0.636041
            41    1       7.276030      2.860650      1.273370     0.871236    0.927026    0.050531
            42    1       9.647690      8.065870      1.455920    -0.000135   -0.873945    0.825445
            43    1       4.010290      2.252830      6.842320     0.176033   -0.791025    1.282239
            44    1       7.306210      1.012880      3.357230    -0.050949    0.812566   -0.167144
            45    1       3.993580      8.324490      2.752360     0.302960    0.389137    0.558608
            46    1       1.205100     10.457900      8.293580     0.676019    1.235937   -0.682272
            47    1       9.119780      6.586020      9.454930    -0.775294    0.283451   -0.551878
            48    1       4.105250      6.211080      6.501810    -0.117978    0.534330   -0.159813
            49    1      11.316570      0.949140      0.530140    -0.308241    0.658396    1.034269
            50    1       2.747880      5.984690      8.971000    -0.122485   -0.432688    0.869421
            51    1       7.430130      5.863490      2.748960     1.281866    0.491770    0.402153
            52    1       5.917190      4.026300      3.097970    -0.288278    0.296412   -1.420328
            53    1       6.359400     11.545120     11.388640     1.177041   -0.135685   -0.000773
            54    1       1.430730     10.982650      1.188280    -0.930614   -0.560253    0.177577
            55    1       9.142060      2.515550      8.533440    -1.098140   -0.855703   -0.298329
            56    1       4.126310     10.818110      7.787040    -0.971268    0.954111   -0.926733
            57    1       9.682740      7.368110      6.256630     0.257852   -0.501226    0.328687
            58    1       4.035380      5.151140      4.394850     0.365727   -0.311925   -0.348153
            59    1       0.334060      6.689450      5.181650     0.038756   -0.109550   -0.835361
            60    1      11.181810      0.806450      2.901620     0.481224    0.030396    1.173753
            61    1       7.538720      4.671220      7.897690     0.002477    0.364803    0.418668
            62    1       5.159660      3.264310      5.040250     0.627799   -1.443658   -0.379867
            63    1       6.263640      6.685380      7.121790     0.240745   -0.478228   -0.348846
            64    1       4.931400      1.330390      3.374070    -0.224959    0.328547   -0.836033
            65    1       4.311460     10.470280      3.596570     0.014345    0.360608    0.454964
            66    1       1.825650      6.912000      7.021360     0.769125    0.325859   -0.171106
            67    1       2.973230      2.520060      4.739900    -0.495002    0.316593   -0.352185
            68    1       8.777490      4.414200      9.782500     1.129847   -1.153476    1.359692
            69    1       0.556930      4.760160      6.514090    -0.415739   -0.466465   -1.289392
            70    1       4.849320      0.442610      9.669030    -0.036290    0.697064    0.863977
            71    1       3.535710      6.395180      1.527970    -0.134765   -1.018534    0.064414
            72    1      11.023400     10.423380      4.424020    -0.655607    0.156536   -0.829329
            73    1       1.719880      4.719270      4.111170     0.302311   -0.419763    0.072061
            74    1       2.224160      1.804070      0.223480     0.158371   -0.118698    0.342043
            75    1       7.817940      7.790400      4.575360     0.072417    0.286907    1.315072
            76    1       7.819730      5.652720      5.611540    -0.703324   -0.562140   -1.000423
            77    1       2.679140      4.082280     11.377090     0.485863    1.562913    0.829377
            78    1       5.130110      5.286450      8.960260    -0.485166    0.965576   -0.984252
            79    1       7.870070      2.820070      6.080140    -0.206535   -0.060506    0.489827
            80    1       7.933220      9.182100      2.618120     0.068194   -0.726030    0.656100
            81    1       6.351470     10.846850      1.994400    -0.463882    0.386287    0.842739
            82    1       8.961030      9.682600      6.219730    -0.110385   -0.006892   -0.558514
            83    1       1.771240      3.132540      9.504260    -0.209937    0.786797    0.100566
            84    1      10.582370     10.211910      1.936480    -0.126335   -0.067586   -0.559845
            85    1      10.677240      2.132450      6.741960    -0.333276   -0.150418   -0.363526
            86    1      11.263230      3.683960      8.544320    -0.241927    0.790993   -0.693760