composition,dmax,tl,tg,species,log10(dmax^2),volume_runs,cooling_runs
Ti50Cu42.5Ni7.5,0.2,1226.0,670.0,"{'Ni7.5', 'Ti50', 'Cu42.5'}",-1.3979400086720375,no,no
Ca70Mg10Zn20,0.5,657.0,367.0,"{'Mg10', 'Zn20', 'Ca70'}",-0.6020599913279624,no,no
Ca55Mg15Zn30,0.5,696.0,387.0,"{'Zn30', 'Ca55', 'Mg15'}",-0.6020599913279624,no,no
Ca45Mg19Cu36,0.5,714.0,399.0,"{'Cu36', 'Ca45', 'Mg19'}",-0.6020599913279624,no,no
Ni60Nb20Zr20,0.5,1391.0,853.0,"{'Ni60', 'Nb20', 'Zr20'}",-0.6020599913279624,yes,no
Fe74.25B14.85Si9.9Nb,0.5,1455.0,815.0,"{'Nb1', 'Si9.9', 'B14.85', 'Fe74.25'}",-0.6020599913279624,no,no
Ca60Mg10Zn30,0.5,666.0,380.0,"{'Zn30', 'Ca60', 'Mg10'}",-0.6020599913279624,no,no
Ni72B19.2Si4.8Nb4,0.5,1446.0,770.0,"{'Nb4', 'B19.2', 'Si4.8', 'Ni72'}",-0.6020599913279624,no,no
Ca65Mg25Cu10,0.5,691.0,405.0,"{'Cu10', 'Ca65', 'Mg25'}",-0.6020599913279624,no,no
Ca40Mg30Cu30,0.5,694.0,395.0,"{'Cu30', 'Ca40', 'Mg30'}",-0.6020599913279624,no,no
Ca65Mg25Zn10,0.5,759.0,387.0,"{'Zn10', 'Ca65', 'Mg25'}",-0.6020599913279624,no,no
Ca65Mg5Cu30,0.5,757.0,403.0,"{'Cu30', 'Ca65', 'Mg5'}",-0.6020599913279624,no,no
Cu47Ti33Nb11Ni8Si,0.5,1265.0,710.0,"{'Cu47', 'Si1', 'Ti33', 'Ni8', 'Nb11'}",-0.6020599913279624,no,no
Ca55Mg18Zn27,0.5,671.0,389.0,"{'Mg18', 'Ca55', 'Zn27'}",-0.6020599913279624,no,no
Ca70Mg20Cu10,0.5,702.0,356.0,"{'Cu10', 'Mg20', 'Ca70'}",-0.6020599913279624,no,no
Ca70Mg15Zn15,0.5,688.0,371.0,"{'Zn15', 'Ca70', 'Mg15'}",-0.6020599913279624,no,no
Ca55Mg10Cu35,0.5,770.0,397.0,"{'Mg10', 'Ca55', 'Cu35'}",-0.6020599913279624,yes,yes
Ni42Ti20Zr25Al8Cu5,0.5,1366.0,748.0,"{'Zr25', 'Al8', 'Ti20', 'Cu5', 'Ni42'}",-0.6020599913279624,no,no
Fe74.25B14.85Si9.9Zr,0.75,1469.0,867.0,"{'Zr1', 'Si9.9', 'B14.85', 'Fe74.25'}",-0.24987747321659987,no,no
Fe67Ni5Y6B22,1.0,1469.0,866.0,"{'Y6', 'Fe67', 'Ni5', 'B22'}",0.0,no,no
Fe74Si3.5C12.7Tm0.6P9.1,1.0,1318.0,717.0,"{'Si3.5', 'Fe74', 'Tm0.6', 'C12.7', 'P9.1'}",0.0,no,no
Ca55Mg11Zn11Cu23,1.0,717.0,379.0,"{'Cu23', 'Mg11', 'Ca55', 'Zn11'}",0.0,no,no
Cu55Zr42.5Ga2.5,1.0,1199.0,709.0,"{'Zr42.5', 'Cu55', 'Ga2.5'}",0.0,no,no
Ca60Mg15Cu25,1.0,687.0,396.0,"{'Cu25', 'Ca60', 'Mg15'}",0.0,no,no
Ca55Mg25Zn20,1.0,751.0,375.0,"{'Zn20', 'Ca55', 'Mg25'}",0.0,no,no
Fe75.3Si3.5C12.9Tm.6P7.6,1.0,1284.0,687.0,"{'Fe75.3', 'Si3.5', 'Tm0.6', 'P7.6', 'C12.9'}",0.0,no,no
Ca45Mg30Cu25,1.0,717.0,401.0,"{'Cu25', 'Ca45', 'Mg30'}",0.0,no,no
Ti50Ni24Cu20BSi2Sn3,1.0,1310.0,726.0,"{'Sn3', 'Ni24', 'Cu20', 'Ti50', 'Si2', 'B1'}",0.0,no,no
Cu57.5Zr37.5Ga5,1.0,1241.0,745.0,"{'Cu57.5', 'Ga5', 'Zr37.5'}",0.0,no,no
Ca60Mg13Cu27,1.0,701.0,394.0,"{'Ca60', 'Mg13', 'Cu27'}",0.0,no,no
Ca70Mg10Cu20,1.0,713.0,385.0,"{'Mg10', 'Cu20', 'Ca70'}",0.0,no,no
Ti50Ni30Cu32Sn3,1.0,1283.0,686.0,"{'Ni30', 'Ti50', 'Cu32', 'Sn3'}",0.0,no,no
Ni61Zr28Nb7Al4,1.0,1348.0,848.0,"{'Ni61', 'Zr28', 'Al4', 'Nb7'}",0.0,no,no
Ca60Mg25Zn15,1.0,744.0,377.0,"{'Ca60', 'Zn15', 'Mg25'}",0.0,no,no
Cu47Ti33Zr3Nb8Ni8Si,1.0,1228.0,708.0,"{'Cu47', 'Si1', 'Ti33', 'Ni8', 'Nb8', 'Zr3'}",0.0,no,no
Ni59Zr20Ti16Sn5,1.0,1288.0,819.0,"{'Ti16', 'Ni59', 'Zr20', 'Sn5'}",0.0,yes,no
Cu47Ni13Zr30Ti10,1.0,1251.0,727.0,"{'Ni13', 'Cu47', 'Ti10', 'Zr30'}",0.0,no,no
Fe73.5B14.7Si9.8Nb2,1.0,1425.0,812.0,"{'B14.7', 'Si9.8', 'Fe73.5', 'Nb2'}",0.0,no,no
Ca66.4Al33.6,1.0,873.0,528.0,"{'Ca66.4', 'Al33.6'}",0.0,no,no
Mg65Cu25Pr10,1.0,784.0,413.0,"{'Mg65', 'Cu25', 'Pr10'}",0.0,no,no
Mg65Cu25Nd10,1.0,744.0,423.0,"{'Mg65', 'Cu25', 'Nd10'}",0.0,no,no
Ni64.8Fe7.2B19.2Si4.8Nb4,1.0,1408.0,762.0,"{'Ni64.8', 'B19.2', 'Fe7.2', 'Nb4', 'Si4.8'}",0.0,no,no
Mg65Cu25Ho10,1.0,751.0,417.0,"{'Mg65', 'Cu25', 'Ho10'}",0.0,no,no
Fe79P10C4B4Si3,1.0,1263.0,740.0,"{'Si3', 'B4', 'Fe79', 'C4', 'P10'}",0.0,no,no
Ni60Nb25Zr15,1.5,1390.0,860.0,"{'Ni60', 'Nb25', 'Zr15'}",0.3521825181113625,no,no
Pr68Cu25Al7,1.5,705.0,382.0,"{'Pr68', 'Cu25', 'Al7'}",0.3521825181113625,no,no
Fe27Co40Zr3Ti3Mo1.5Si1.5B24,1.5,1379.0,811.0,"{'Fe27', 'Co40', 'Si1.5', 'B24', 'Ti3', 'Mo1.5', 'Zr3'}",0.3521825181113625,no,no
Fe68Ni4Y6B22,1.5,1470.0,872.0,"{'Y6', 'Fe68', 'B22', 'Ni4'}",0.3521825181113625,no,no
Ti47.5Zr2.5Cu42.5Ni7.5,1.5,1225.0,673.0,"{'Ni7.5', 'Ti47.5', 'Cu42.5', 'Zr2.5'}",0.3521825181113625,no,no
Cu52.5Zr40Ga7.5,1.5,1218.0,744.0,"{'Ga7.5', 'Zr40', 'Cu52.5'}",0.3521825181113625,no,no
Fe72B14.4Si9.6Nb4,1.5,1369.0,835.0,"{'Fe72', 'Nb4', 'B14.4', 'Si9.6'}",0.3521825181113625,no,no
Ni60Nb35Zr5,1.5,1458.0,887.0,"{'Ni60', 'Nb35', 'Zr5'}",0.3521825181113625,no,no
Fe72B19.2Si4.8Nb4,1.5,1475.0,835.0,"{'Fe72', 'Nb4', 'B19.2', 'Si4.8'}",0.3521825181113625,no,no
Fe78MoP10C4B4Si3,1.5,1268.0,742.0,"{'Si3', 'B4', 'Mo1', 'Fe78', 'C4', 'P10'}",0.3521825181113625,no,no
Fe69Ni3Y6B22,1.5,1503.0,874.0,"{'Ni3', 'Fe69', 'B22', 'Y6'}",0.3521825181113625,no,no
Y56Al24Co20,1.5,1078.0,636.0,"{'Co20', 'Al24', 'Y56'}",0.3521825181113625,no,no
Fe74Mo4Ga2P10C4B4Si2,1.5,1276.0,740.0,"{'Mo4', 'B4', 'Fe74', 'C4', 'Ga2', 'P10', 'Si2'}",0.3521825181113625,no,no
Ca65Mg10Zn25,2.0,659.0,377.0,"{'Zn25', 'Ca65', 'Mg10'}",0.6020599913279624,no,no
Ca65Mg10Cu25,2.0,711.0,388.0,"{'Cu25', 'Ca65', 'Mg10'}",0.6020599913279624,no,no
Fe70Co2Y6B22,2.0,1420.0,898.0,"{'Y6', 'Fe70', 'Co2', 'B22'}",0.6020599913279624,no,no
Zr50Cu48Ag2,2.0,1192.0,668.0,"{'Zr50', 'Cu48', 'Ag2'}",0.6020599913279624,no,no
Fe70.56Nb3.92B19.6Si3.92Y2,2.0,1416.0,855.0,"{'B19.6', 'Nb3.92', 'Si3.92', 'Y2', 'Fe70.56'}",0.6020599913279624,no,no
Ti53Cu15Ni18.5Al7Si3Sc3B0.5,2.0,1240.0,709.0,"{'Si3', 'B0.5', 'Cu15', 'Al7', 'Ni18.5', 'Ti53', 'Sc3'}",0.6020599913279624,no,no
Fe71.28Nb3.96B19.8Si3.96Y,2.0,1419.0,855.0,"{'Nb3.96', 'Y1', 'Si3.96', 'B19.8', 'Fe71.28'}",0.6020599913279624,no,no
Pd71.5Cu12Si16.5,2.0,1154.0,652.0,"{'Cu12', 'Pd71.5', 'Si16.5'}",0.6020599913279624,no,no
Ca50Mg30Cu20,2.0,731.0,402.0,"{'Ca50', 'Cu20', 'Mg30'}",0.6020599913279624,no,no
Ca55Mg20Cu25,2.0,720.0,399.0,"{'Cu25', 'Mg20', 'Ca55'}",0.6020599913279624,no,no
Ca50Mg10Zn15Cu25,2.0,702.0,395.0,"{'Cu25', 'Ca50', 'Zn15', 'Mg10'}",0.6020599913279624,no,no
Ca65Mg20Cu15,2.0,679.0,386.0,"{'Cu15', 'Mg20', 'Ca65'}",0.6020599913279624,no,no
Pd81.5Cu2Si6.5,2.0,1097.0,633.0,"{'Si6.5', 'Pd81.5', 'Cu2'}",0.6020599913279624,no,no
Ni60Zr20Ti5Nb10Al5,2.0,1379.0,826.0,"{'Al5', 'Ti5', 'Zr20', 'Ni60', 'Nb10'}",0.6020599913279624,no,no
Ni60Zr20Ti7.5Nb7.5Al5,2.0,1385.0,824.0,"{'Al5', 'Zr20', 'Ni60', 'Ti7.5', 'Nb7.5'}",0.6020599913279624,no,no
Ni61Zr22Nb7Al4Ta6,2.0,1379.0,867.0,"{'Ta6', 'Nb7', 'Ni61', 'Zr22', 'Al4'}",0.6020599913279624,no,no
Cu42Zr42Ag16,2.0,1232.0,685.0,"{'Zr42', 'Cu42', 'Ag16'}",0.6020599913279624,no,no
Fe66Co6Y6B22,2.0,1509.0,887.0,"{'Y6', 'Fe66', 'B22', 'Co6'}",0.6020599913279624,no,no
Pd73.5Cu10Si16.5,2.0,1136.0,645.0,"{'Cu10', 'Si16.5', 'Pd73.5'}",0.6020599913279624,no,no
Co64.8Fe7.2B19.2Si4.8Nb4,2.0,1457.0,803.0,"{'B19.2', 'Fe7.2', 'Nb4', 'Co64.8', 'Si4.8'}",0.6020599913279624,no,no
Cu35Ag25Zr30Ti10,2.0,1138.0,677.0,"{'Cu35', 'Ag25', 'Ti10', 'Zr30'}",0.6020599913279624,no,no
Co50Cr15Mo14C15B6,2.0,1417.0,819.0,"{'Co50', 'B6', 'C15', 'Cr15', 'Mo14'}",0.6020599913279624,no,no
Fe64.8Co7.2B19.2Si4.8Nb4,2.0,1460.0,832.0,"{'Co7.2', 'B19.2', 'Nb4', 'Fe64.8', 'Si4.8'}",0.6020599913279624,no,no
Co43Fe20Ta5.5B31.5,2.0,1526.0,910.0,"{'Fe20', 'Ta5.5', 'Co43', 'B31.5'}",0.6020599913279624,no,no
Ca55Mg20Zn25,2.0,702.0,383.0,"{'Zn25', 'Mg20', 'Ca55'}",0.6020599913279624,no,no
Ni60Zr20Ti2.5Nb12.5Al5,2.0,1378.0,836.0,"{'Al5', 'Ti2.5', 'Zr20', 'Ni60', 'Nb12.5'}",0.6020599913279624,no,no
Ti50Ni15Cu25Sn3Be7,2.0,1207.0,688.0,"{'Sn3', 'Ni15', 'Be7', 'Cu25', 'Ti50'}",0.6020599913279624,no,no
Ti53Cu15Ni18.5Al7Si3Hf3B0.5,2.0,1230.0,695.0,"{'Si3', 'B0.5', 'Cu15', 'Al7', 'Ni18.5', 'Ti53', 'Hf3'}",0.6020599913279624,no,no
Fe68Co4Y6B22,2.0,1414.0,896.0,"{'Y6', 'Co4', 'Fe68', 'B22'}",0.6020599913279624,no,no
Fe73Mo4Ga3P10C4B4Si2,2.0,1283.0,744.0,"{'Mo4', 'B4', 'Fe73', 'Ga3', 'C4', 'P10', 'Si2'}",0.6020599913279624,no,no
Fe72Nb4B20Si4,2.0,1420.0,842.0,"{'Fe72', 'Nb4', 'B20', 'Si4'}",0.6020599913279624,no,no
Cu45Zr15Ag10Hf30,2.0,1275.0,712.0,"{'Zr15', 'Hf30', 'Cu45', 'Ag10'}",0.6020599913279624,no,no
Ni59Zr20Ti16Si5,2.0,1304.0,830.0,"{'Si5', 'Ti16', 'Ni59', 'Zr20'}",0.6020599913279624,no,no
Ni57.6Fe14.4B19.2Si4.8Nb4,2.0,1381.0,755.0,"{'B19.2', 'Fe14.4', 'Ni57.6', 'Nb4', 'Si4.8'}",0.6020599913279624,no,no
Cu55Zr40Ga5,2.0,1193.0,736.0,"{'Cu55', 'Zr40', 'Ga5'}",0.6020599913279624,no,no
Cu55Ni5Zr30Ti10,2.0,1204.0,717.0,"{'Cu55', 'Ni5', 'Ti10', 'Zr30'}",0.6020599913279624,no,no
Fe72Y6B22,2.0,1419.0,898.0,"{'Y6', 'Fe72', 'B22'}",0.6020599913279624,no,no
Cu47Ti33Zr5Nb6Ni8Si,2.0,1187.0,712.0,"{'Cu47', 'Si1', 'Ti33', 'Ni8', 'Zr5', 'Nb6'}",0.6020599913279624,no,no
Cu50Zr50,2.0,1237.0,686.0,"{'Zr50', 'Cu50'}",0.6020599913279624,yes,yes
La55Al15Ag10Cu20,2.0,787.0,416.0,"{'La55', 'Cu20', 'Al15', 'Ag10'}",0.6020599913279624,no,no
Ni42Ti20Zr22.5Al8Cu5Si2.5,2.0,1367.0,767.0,"{'Ti20', 'Al8', 'Zr22.5', 'Cu5', 'Si2.5', 'Ni42'}",0.6020599913279624,no,no
Cu64Zr36,2.0,1230.0,787.0,"{'Cu64', 'Zr36'}",0.6020599913279624,no,no
Cu46Zr54,2.0,1201.0,696.0,"{'Zr54', 'Cu46'}",0.6020599913279624,no,no
Fe71NiY6B22,2.0,1507.0,883.0,"{'Y6', 'Fe71', 'Ni1', 'B22'}",0.6020599913279624,no,no
Ca60Mg25Cu15,2.0,676.0,390.0,"{'Cu15', 'Ca60', 'Mg25'}",0.6020599913279624,no,no
Fe76Mo2Ga2P10C4B4Si2,2.0,1247.0,736.0,"{'B4', 'Mo2', 'C4', 'Ga2', 'P10', 'Si2', 'Fe76'}",0.6020599913279624,no,no
Ca63Al32Cu5,2.0,831.0,512.0,"{'Cu5', 'Al32', 'Ca63'}",0.6020599913279624,no,no
Ni60Nb30Ta10,2.0,1559.0,934.0,"{'Ni60', 'Ta10', 'Nb30'}",0.6020599913279624,no,no
Ni60Nb30Zr10,2.0,1413.0,875.0,"{'Ni60', 'Zr10', 'Nb30'}",0.6020599913279624,no,no
Ca60Al30Ag10,2.0,868.0,483.0,"{'Ag10', 'Ca60', 'Al30'}",0.6020599913279624,no,no
Ni42Ti20Zr20.5Al8Cu5Si4.5,2.0,1364.0,763.0,"{'Ti20', 'Al8', 'Si4.5', 'Cu5', 'Zr20.5', 'Ni42'}",0.6020599913279624,no,no
Cu60Zr30Ti10,2.0,1175.0,724.0,"{'Cu60', 'Ti10', 'Zr30'}",0.6020599913279624,no,no
Fe74Nb6Y3B17,2.0,1391.0,831.0,"{'Y3', 'Fe74', 'B17', 'Nb6'}",0.6020599913279624,no,no
Cu52.5Zr42.5Ga5,2.0,1187.0,733.0,"{'Zr42.5', 'Ga5', 'Cu52.5'}",0.6020599913279624,no,no
Fe70Ni2Y6B22,2.0,1509.0,880.0,"{'Y6', 'Fe70', 'Ni2', 'B22'}",0.6020599913279624,no,no
Fe75Mo2Ga3P10C4B4Si2,2.5,1230.0,738.0,"{'B4', 'Si2', 'Mo2', 'Ga3', 'C4', 'P10', 'Fe75'}",0.7958800173440752,no,no
Co57.6Fe14.4B19.2Si4.8Nb4,2.5,1445.0,813.0,"{'Co57.6', 'B19.2', 'Fe14.4', 'Nb4', 'Si4.8'}",0.7958800173440752,no,no
Ti42.5Zr2.5Hf5Cu42.5Ni7.5,2.5,1203.0,677.0,"{'Ti42.5', 'Hf5', 'Zr2.5', 'Ni7.5', 'Cu42.5'}",0.7958800173440752,no,no
Ni50.4Fe21.6B19.2Si4.8Nb4,2.5,1356.0,750.0,"{'Fe21.6', 'B19.2', 'Nb4', 'Si4.8', 'Ni50.4'}",0.7958800173440752,no,no
Cu55.2Hf23Ti13.8Nb8,2.5,1198.0,745.0,"{'Cu55.2', 'Nb8', 'Hf23', 'Ti13.8'}",0.7958800173440752,no,no
Ni42Ti20Zr21.5Al8Cu5Si3.5,2.5,1366.0,774.0,"{'Si3.5', 'Ti20', 'Al8', 'Cu5', 'Ni42', 'Zr21.5'}",0.7958800173440752,no,no
Fe56Co16Y6B22,2.5,1494.0,882.0,"{'Co16', 'B22', 'Fe56', 'Y6'}",0.7958800173440752,no,no
Fe64Co8Y6B22,2.5,1505.0,884.0,"{'Y6', 'Fe64', 'Co8', 'B22'}",0.7958800173440752,no,no
Fe57.6Co14.4B19.2Si4.8Nb4,2.5,1431.0,830.0,"{'Co14.4', 'B19.2', 'Nb4', 'Si4.8', 'Fe57.6'}",0.7958800173440752,no,no
Fe77Mo2P10C4B4Si3,2.5,1264.0,742.0,"{'Si3', 'B4', 'Mo2', 'Fe77', 'C4', 'P10'}",0.7958800173440752,no,no
Fe76Si9B10P5,2.5,1258.0,780.0,"{'B10', 'Si9', 'P5', 'Fe76'}",0.7958800173440752,no,no
Zr55Al20Co25,2.5,1245.0,761.0,"{'Al20', 'Co25', 'Zr55'}",0.7958800173440752,no,no
Fe58Co14Y6B22,2.5,1485.0,880.0,"{'Y6', 'Co14', 'B22', 'Fe58'}",0.7958800173440752,no,no
Fe71MoY6B22,2.5,1517.0,902.0,"{'Y6', 'Fe71', 'B22', 'Mo1'}",0.7958800173440752,no,no
Fe62Co10Y6B22,2.5,1503.0,885.0,"{'Y6', 'Fe62', 'Co10', 'B22'}",0.7958800173440752,no,no
Fe60Co12Y6B22,2.5,1498.0,881.0,"{'Y6', 'Co12', 'B22', 'Fe60'}",0.7958800173440752,no,no
Mg65Cu25Er10,3.0,766.0,422.0,"{'Mg65', 'Cu25', 'Er10'}",0.9542425094393249,no,no
Ni43.2Fe28.8B19.2Si4.8Nb4,3.0,1348.0,745.0,"{'B19.2', 'Ni43.2', 'Fe28.8', 'Nb4', 'Si4.8'}",0.9542425094393249,no,no
Cu48Zr48Ag4,3.0,1199.0,681.0,"{'Ag4', 'Cu48', 'Zr48'}",0.9542425094393249,no,no
Cu60Hf17.5Ti22.5,3.0,1229.0,732.0,"{'Cu60', 'Hf17.5', 'Ti22.5'}",0.9542425094393249,no,no
La55Al17.5Ag7.5Cu20,3.0,852.0,425.0,"{'La55', 'Ag7.5', 'Al17.5', 'Cu20'}",0.9542425094393249,no,no
Cu60Zr33Ti7,3.0,1191.0,740.0,"{'Cu60', 'Zr33', 'Ti7'}",0.9542425094393249,no,no
La55Al25Ag5Cu15,3.0,860.0,452.0,"{'Ag5', 'La55', 'Al25', 'Cu15'}",0.9542425094393249,no,no
Mg65Cu25Dy10,3.0,750.0,422.0,"{'Mg65', 'Cu25', 'Dy10'}",0.9542425094393249,no,no
Zr65.5Al5.6Ni6.5Cu22.4,3.0,1211.0,630.0,"{'Ni6.5', 'Al5.6', 'Zr65.5', 'Cu22.4'}",0.9542425094393249,no,no
Fe74Mo5P10C4B4Si3,3.0,1263.0,758.0,"{'Si3', 'B4', 'Mo5', 'Fe74', 'C4', 'P10'}",0.9542425094393249,no,no
Ni42Ti19Zr22.5Al8Cu5Si3.5,3.0,1363.0,780.0,"{'Si3.5', 'Al8', 'Zr22.5', 'Cu5', 'Ti19', 'Ni42'}",0.9542425094393249,no,no
Cu52.5Hf40Al7.5,3.0,1250.0,779.0,"{'Hf40', 'Al7.5', 'Cu52.5'}",0.9542425094393249,no,no
Zr51Cu20.7Ni12Al16.3,3.0,1132.0,722.0,"{'Al16.3', 'Cu20.7', 'Zr51', 'Ni12'}",0.9542425094393249,no,no
Cu45Zr25Ag10Hf20,3.0,1218.0,698.0,"{'Zr25', 'Hf20', 'Cu45', 'Ag10'}",0.9542425094393249,no,no
Fe69.12Nb3.84B19.2Si3.84Y4,3.0,1424.0,905.0,"{'Y4', 'B19.2', 'Fe69.12', 'Nb3.84', 'Si3.84'}",0.9542425094393249,no,no
Ca55Mg15Cu30,3.0,706.0,397.0,"{'Cu30', 'Ca55', 'Mg15'}",0.9542425094393249,no,no
Ti40Zr10Cu32Pd18,3.0,1272.0,683.0,"{'Zr10', 'Pd18', 'Ti40', 'Cu32'}",0.9542425094393249,no,no
Ti40Zr10Cu30Pd20,3.0,1279.0,687.0,"{'Cu30', 'Zr10', 'Ti40', 'Pd20'}",0.9542425094393249,no,no
Fe65.5Cr4Mo4Ga4P12C5B5.5,3.0,1322.0,745.0,"{'Fe65.5', 'Mo4', 'Cr4', 'B5.5', 'Ga4', 'P12', 'C5'}",0.9542425094393249,no,no
Fe63C15Mo14Er2B6,3.0,1389.0,771.0,"{'Fe63', 'Er2', 'B6', 'C15', 'Mo14'}",0.9542425094393249,no,no
Cu40Ag20Zr30Ti10,3.0,1125.0,677.0,"{'Ag20', 'Cu40', 'Ti10', 'Zr30'}",0.9542425094393249,no,no
Cu40Zr40Ag10Al10,3.0,1273.0,710.0,"{'Zr40', 'Cu40', 'Al10', 'Ag10'}",0.9542425094393249,no,no
Ni59Zr20Ti16Si2Sn3,3.0,1272.0,821.0,"{'Sn3', 'Ti16', 'Zr20', 'Si2', 'Ni59'}",0.9542425094393249,no,no
Cu55Ag5Zr30Ti10,3.0,1149.0,704.0,"{'Ag5', 'Cu55', 'Ti10', 'Zr30'}",0.9542425094393249,no,no
Cu46Zr47Al7,3.0,1163.0,705.0,"{'Cu46', 'Al7', 'Zr47'}",0.9542425094393249,no,no
Zr41Ti14Cu12.5Ni2Be22.5C8,3.0,992.0,629.0,"{'Ni2', 'Be22.5', 'Zr41', 'Cu12.5', 'C8', 'Ti14'}",0.9542425094393249,no,no
Fe67Mo5Y6B22,3.5,1483.0,920.0,"{'Y6', 'Fe67', 'B22', 'Mo5'}",1.0881360887005513,no,no
Fe70Mo2Y6B22,3.5,1508.0,907.0,"{'Y6', 'Fe70', 'Mo2', 'B22'}",1.0881360887005513,no,no
Fe76Mo3P10C4B4Si3,3.5,1250.0,750.0,"{'Si3', 'B4', 'C4', 'Mo3', 'P10', 'Fe76'}",1.0881360887005513,no,no
Co50.4Fe21.6B19.2Si4.8Nb4,3.5,1430.0,820.0,"{'Fe21.6', 'B19.2', 'Co50.4', 'Nb4', 'Si4.8'}",1.0881360887005513,no,no
Fe41.9Co27.9B18.6Si4.7Nb3.9Cr3,3.5,1474.0,831.0,"{'Fe41.9', 'Co27.9', 'Si4.7', 'Nb3.9', 'B18.6', 'Cr3'}",1.0881360887005513,no,no
Fe50.4Co21.6B19.2Si4.8Nb4,3.5,1413.0,828.0,"{'Co21.6', 'B19.2', 'Nb4', 'Si4.8', 'Fe50.4'}",1.0881360887005513,no,no
Ca60Mg20Ag20,4.0,666.1158,401.0,"{'Ca60', 'Ag20', 'Mg20'}",1.2041199826559248,no,no
Cu46Zr46Ag8,4.0,1167.0,677.0,"{'Cu46', 'Ag8', 'Zr46'}",1.2041199826559248,no,no
Cu58.8Hf24.5Ti14.7Nb2,4.0,1184.0,746.0,"{'Nb2', 'Hf24.5', 'Cu58.8', 'Ti14.7'}",1.2041199826559248,no,no
Ca60Mg20Cu20,4.0,678.0,387.0,"{'Ca60', 'Mg20', 'Cu20'}",1.2041199826559248,no,no
Ca65Mg15Cu20,4.0,682.0,383.0,"{'Cu20', 'Ca65', 'Mg15'}",1.2041199826559248,no,no
Cu50Ag10Zr30Ti10,4.0,1130.0,694.0,"{'Ti10', 'Zr30', 'Cu50', 'Ag10'}",1.2041199826559248,no,no
Co43.2Fe28.8B19.2Si4.8Nb4,4.0,1418.0,823.0,"{'Co43.2', 'B19.2', 'Fe28.8', 'Nb4', 'Si4.8'}",1.2041199826559248,no,no
Cu44Zr44Ag12,4.0,1156.0,684.0,"{'Zr44', 'Cu44', 'Ag12'}",1.2041199826559248,no,no
Cu45Zr35Ag10Hf10,4.0,1171.0,690.0,"{'Zr35', 'Hf10', 'Cu45', 'Ag10'}",1.2041199826559248,no,no
Ca60Mg20Zn20,4.0,660.0,378.0,"{'Ca60', 'Zn20', 'Mg20'}",1.2041199826559248,no,no
Cu60Hf20Ti20,4.0,1211.0,740.0,"{'Ti20', 'Cu60', 'Hf20'}",1.2041199826559248,no,no
Cu46Zr37Al7Y10,4.0,1118.0,665.0,"{'Cu46', 'Zr37', 'Al7', 'Y10'}",1.2041199826559248,no,no
Fe68.3C6.9Si2.5B6.7P8.8Cr2.2Mo2.5Al2.1,4.0,1316.0,795.0,"{'B6.7', 'Al2.1', 'Mo2.5', 'Si2.5', 'P8.8', 'Cr2.2', 'C6.9', 'Fe68.3'}",1.2041199826559248,no,no
Fe43.2Co28.8B19.2Si4.8Nb4,4.0,1407.0,825.0,"{'Fe43.2', 'B19.2', 'Nb4', 'Si4.8', 'Co28.8'}",1.2041199826559248,no,no
Cu60Hf25Ti15,4.0,1177.0,730.0,"{'Hf25', 'Cu60', 'Ti15'}",1.2041199826559248,no,no
Cu50Zr43Al7,4.0,1176.0,721.0,"{'Zr43', 'Al7', 'Cu50'}",1.2041199826559248,no,no
Cu47Ti33Zr11Ni8Si,4.0,1157.0,720.0,"{'Cu47', 'Si1', 'Ti33', 'Ni8', 'Zr11'}",1.2041199826559248,no,no
Cu56.4Hf23.5Ti14.1Nb6,4.0,1190.0,745.0,"{'Nb6', 'Hf23.5', 'Cu56.4', 'Ti14.1'}",1.2041199826559248,no,no
Mg63.5Cu27.5Gd9,4.0,773.0,425.0,"{'Gd9', 'Mg63.5', 'Cu27.5'}",1.2041199826559248,no,no
Cu57Zr36Ag7,4.0,1156.0,712.0,"{'Cu57', 'Zr36', 'Ag7'}",1.2041199826559248,no,no
Gd60Ni15Al25,4.0,1006.0,603.0,"{'Al25', 'Gd60', 'Ni15'}",1.2041199826559248,no,no
Zr50Cu45Ag5,4.0,1188.0,669.0,"{'Ag5', 'Zr50', 'Cu45'}",1.2041199826559248,no,no
Zr50Cu43Ag7,4.0,1171.0,669.0,"{'Zr50', 'Ag7', 'Cu43'}",1.2041199826559248,no,no
Zr50Cu38Ag12,4.0,1187.0,663.0,"{'Cu38', 'Zr50', 'Ag12'}",1.2041199826559248,no,no
Mg61Cu29Gd10,4.0,762.0,420.0,"{'Gd10', 'Mg61', 'Cu29'}",1.2041199826559248,no,no
Ti40Zr10Cu40Pd10,4.0,1184.0,660.0,"{'Pd10', 'Zr10', 'Cu40', 'Ti40'}",1.2041199826559248,no,no
Y60Fe30Al10,4.0,1231.0,672.0,"{'Y60', 'Al10', 'Fe30'}",1.2041199826559248,no,no
Cu57.6Hf24Ti14.4Nb4,4.0,1188.0,747.0,"{'Ti14.4', 'Nb4', 'Cu57.6', 'Hf24'}",1.2041199826559248,no,no
Fe76Mo4P9C4B4Si3,4.0,1245.0,744.0,"{'Si3', 'Mo4', 'P9', 'B4', 'C4', 'Fe76'}",1.2041199826559248,no,no
La55Al20Ag5Cu20,4.0,823.0,429.0,"{'Ag5', 'La55', 'Cu20', 'Al20'}",1.2041199826559248,no,no
Mg59Cu31Gd10,4.0,769.0,424.0,"{'Cu31', 'Mg59', 'Gd10'}",1.2041199826559248,no,no
Mg61.5Cu29.5Gd9,4.0,785.0,433.0,"{'Gd9', 'Cu29.5', 'Mg61.5'}",1.2041199826559248,no,no
Mg63Cu27Gd10,4.0,755.0,418.0,"{'Gd10', 'Cu27', 'Mg63'}",1.2041199826559248,no,no
Fe75Mo4P10C4B4Si3,4.0,1227.0,752.0,"{'Si3', 'Mo4', 'B4', 'C4', 'P10', 'Fe75'}",1.2041199826559248,no,no
Ca40Mg25Cu35,4.0,680.0,399.0,"{'Cu35', 'Ca40', 'Mg25'}",1.2041199826559248,no,no
Fe69.84Nb3.88B19.4Si3.88Y3,4.0,1416.0,859.0,"{'Nb3.88', 'Fe69.84', 'Y3', 'B19.4', 'Si3.88'}",1.2041199826559248,no,no
Pd79Cu5AgSi10P5,4.0,1001.0,614.0,"{'Pd79', 'Si10', 'Cu5', 'Ag1', 'P5'}",1.2041199826559248,no,no
Zr40Ti15Cu11Ni11Be21.5YMg0.5,5.0,975.0,630.0,"{'Ti15', 'Mg0.5', 'Ni11', 'Zr40', 'Y1', 'Be21.5', 'Cu11'}",1.3979400086720377,no,no
Zr36Nb12Cu10Ni8Be20Y2Mg12,5.0,1029.0,653.0,"{'Mg12', 'Cu10', 'Ni8', 'Zr36', 'Nb12', 'Y2', 'Be20'}",1.3979400086720377,no,no
Zr36Nb12Cu10Ni6Fe2Be20Y2Mg12,5.0,1029.0,670.0,"{'Ni6', 'Mg12', 'Cu10', 'Zr36', 'Nb12', 'Fe2', 'Y2', 'Be20'}",1.3979400086720377,no,no
La62Al14Cu18Ag6,5.0,736.0,406.0,"{'La62', 'Cu18', 'Ag6', 'Al14'}",1.3979400086720377,no,no
La62Al14Cu16Ag8,5.0,744.0,407.0,"{'La62', 'Ag8', 'Cu16', 'Al14'}",1.3979400086720377,no,no
La65Al10Ag5Cu20,5.0,716.0,380.0,"{'Ag5', 'Cu20', 'La65', 'Al10'}",1.3979400086720377,no,no
Cu54Zr27Ti9Be10,5.0,1130.0,720.0,"{'Ti9', 'Be10', 'Zr27', 'Cu54'}",1.3979400086720377,no,no
La62Al14Cu17Ag7,5.0,739.0,406.0,"{'La62', 'Ag7', 'Cu17', 'Al14'}",1.3979400086720377,no,no
Gd60Co25Al15,5.0,952.0,572.0,"{'Co25', 'Al15', 'Gd60'}",1.3979400086720377,no,no
La60Al15Ag5Cu20,5.0,759.0,401.0,"{'Ag5', 'Cu20', 'La60', 'Al15'}",1.3979400086720377,no,no
Zr26Ti10Cu8Ni8Be20Y4Mg24,5.0,951.0,650.0,"{'Zr26', 'Y4', 'Ni8', 'Ti10', 'Cu8', 'Mg24', 'Be20'}",1.3979400086720377,no,no
Cu50Zr42.5Ti7.5,5.0,1152.0,677.0,"{'Zr42.5', 'Ti7.5', 'Cu50'}",1.3979400086720377,no,no
Zr41Ti14Cu12.5Ni8Be22.5C2,5.0,997.0,628.0,"{'C2', 'Be22.5', 'Ni8', 'Zr41', 'Cu12.5', 'Ti14'}",1.3979400086720377,no,no
Ti45Ni15Cu25Sn3Be7Zr5,5.0,1142.0,680.0,"{'Sn3', 'Ti45', 'Ni15', 'Be7', 'Zr5', 'Cu25'}",1.3979400086720377,no,no
Fe36Co36B19.2Si4.8Nb4,5.0,1397.0,820.0,"{'Fe36', 'B19.2', 'Nb4', 'Si4.8', 'Co36'}",1.3979400086720377,no,no
Ti41.5Zr2.5Hf5Cu42.5Ni7.5Si,5.0,1199.0,680.0,"{'Si1', 'Hf5', 'Ti41.5', 'Zr2.5', 'Ni7.5', 'Cu42.5'}",1.3979400086720377,no,no
Cu58.8Zr29.4Ti9.8Y2,5.0,1122.0,707.0,"{'Ti9.8', 'Cu58.8', 'Zr29.4', 'Y2'}",1.3979400086720377,no,no