 100 100   0   0
  0.1064800E+02  0.1021150E-08  0.1021150E-08  0.1021150E-08  0.5000000E-15
  1.000000000000000E-004
  CAR 
 unknown system                          
     21.67455142     -4.28572249  301     14.63019224      1.00000000
     -4.286  0.0000E+00  0.0000E+00  0.0000E+00  0.0000E+00
     -4.199  0.0000E+00  0.0000E+00  0.0000E+00  0.0000E+00
     -4.113  0.0000E+00  0.0000E+00  0.0000E+00  0.0000E+00
     -4.026  0.0000E+00  0.0000E+00  0.0000E+00  0.0000E+00
     -3.940  0.0000E+00  0.0000E+00  0.0000E+00  0.0000E+00
     -3.853  0.0000E+00  0.0000E+00  0.0000E+00  0.0000E+00
     -3.767  0.0000E+00  0.0000E+00  0.0000E+00  0.0000E+00
     -3.680  0.0000E+00  0.0000E+00  0.0000E+00  0.0000E+00
     -3.593  0.0000E+00  0.0000E+00  0.0000E+00  0.0000E+00
     -3.507  0.0000E+00  0.0000E+00  0.0000E+00  0.0000E+00
     -3.420  0.0000E+00  0.0000E+00  0.0000E+00  0.0000E+00
     -3.334  0.6351E-09  0.5879E-09  0.5495E-10  0.5087E-10
     -3.247  0.3582E-03  0.3409E-03  0.3100E-04  0.2950E-04
     -3.161  0.6892E+00  0.6734E+00  0.5967E-01  0.5830E-01
     -3.074  0.8709E+01  0.8688E+01  0.8133E+00  0.8101E+00
     -2.988  0.2153E+01  0.2189E+01  0.9996E+00  0.9996E+00
     -2.901  0.4883E-02  0.5093E-02  0.1000E+01  0.1000E+01
     -2.815  0.4186E-07  0.4488E-07  0.1000E+01  0.1000E+01
     -2.728  0.1283E-14  0.1283E-14  0.1000E+01  0.1000E+01
     -2.642  0.0000E+00  0.0000E+00  0.1000E+01  0.1000E+01
     -2.555  0.0000E+00  0.0000E+00  0.1000E+01  0.1000E+01
     -2.469  0.0000E+00  0.0000E+00  0.1000E+01  0.1000E+01
     -2.382  0.0000E+00  0.0000E+00  0.1000E+01  0.1000E+01
     -2.295  0.1924E-14  0.1924E-14  0.1000E+01  0.1000E+01
     -2.209  0.7147E-07  0.6661E-07  0.1000E+01  0.1000E+01
     -2.122  0.6739E-02  0.6460E-02  0.1001E+01  0.1001E+01
     -2.036  0.2445E+01  0.2405E+01  0.1212E+01  0.1209E+01
     -1.949  0.9904E+01  0.9902E+01  0.2069E+01  0.2066E+01
     -1.863  0.1270E+02  0.1268E+02  0.3168E+01  0.3162E+01
     -1.776  0.9320E+01  0.9377E+01  0.3975E+01  0.3974E+01
     -1.690  0.6267E+01  0.6230E+01  0.4517E+01  0.4513E+01
     -1.603  0.1073E+02  0.1073E+02  0.5446E+01  0.5441E+01
     -1.517  0.1267E+02  0.1267E+02  0.6543E+01  0.6538E+01
     -1.430  0.5228E+01  0.5285E+01  0.6995E+01  0.6995E+01
     -1.344  0.5681E-01  0.5885E-01  0.7000E+01  0.7000E+01
     -1.257  0.2845E-05  0.3031E-05  0.7000E+01  0.7000E+01
     -1.170  0.4401E-12  0.4824E-12  0.7000E+01  0.7000E+01
     -1.084  0.2655E-10  0.2433E-10  0.7000E+01  0.7000E+01
     -0.997  0.4519E-04  0.4266E-04  0.7000E+01  0.7000E+01
     -0.911  0.2492E+00  0.2419E+00  0.7022E+01  0.7021E+01
     -0.824  0.7433E+01  0.7388E+01  0.7665E+01  0.7660E+01
     -0.738  0.5306E+01  0.5331E+01  0.8124E+01  0.8122E+01
     -0.651  0.9079E+01  0.9082E+01  0.8910E+01  0.8907E+01
     -0.565  0.6745E+01  0.6716E+01  0.9493E+01  0.9489E+01
     -0.478  0.1544E+02  0.1541E+02  0.1083E+02  0.1082E+02
     -0.392  0.1524E+02  0.1527E+02  0.1215E+02  0.1214E+02
     -0.305  0.1446E+02  0.1444E+02  0.1340E+02  0.1339E+02
     -0.219  0.8846E+01  0.8882E+01  0.1416E+02  0.1416E+02
     -0.132  0.9822E+01  0.9823E+01  0.1501E+02  0.1501E+02
     -0.046  0.1402E+02  0.1397E+02  0.1623E+02  0.1622E+02
      0.041  0.1735E+02  0.1738E+02  0.1773E+02  0.1772E+02
      0.128  0.5280E+01  0.5300E+01  0.1819E+02  0.1818E+02
      0.214  0.8714E+01  0.8734E+01  0.1894E+02  0.1894E+02
      0.301  0.6854E+00  0.7005E+00  0.1900E+02  0.1900E+02
      0.387  0.3540E-03  0.3708E-03  0.1900E+02  0.1900E+02
      0.474  0.6234E-09  0.6702E-09  0.1900E+02  0.1900E+02
      0.560  0.6306E-10  0.5885E-10  0.1900E+02  0.1900E+02
      0.647  0.7999E-04  0.7644E-04  0.1900E+02  0.1900E+02
      0.733  0.3349E+00  0.3273E+00  0.1903E+02  0.1903E+02
      0.820  0.9442E+01  0.9375E+01  0.1985E+02  0.1984E+02
      0.906  0.1688E+02  0.1687E+02  0.2131E+02  0.2130E+02
      0.993  0.1273E+02  0.1276E+02  0.2241E+02  0.2240E+02
      1.079  0.1948E+02  0.1943E+02  0.2409E+02  0.2408E+02
      1.166  0.1047E+02  0.1057E+02  0.2500E+02  0.2500E+02
      1.252  0.8495E+01  0.8417E+01  0.2574E+02  0.2573E+02
      1.339  0.1382E+02  0.1388E+02  0.2693E+02  0.2693E+02
      1.426  0.7973E+00  0.8165E+00  0.2700E+02  0.2700E+02
      1.512  0.4229E-03  0.4445E-03  0.2700E+02  0.2700E+02
      1.599  0.8155E-09  0.8816E-09  0.2700E+02  0.2700E+02
      1.685  0.0000E+00  0.0000E+00  0.2700E+02  0.2700E+02
      1.772  0.0000E+00  0.0000E+00  0.2700E+02  0.2700E+02
      1.858  0.0000E+00  0.0000E+00  0.2700E+02  0.2700E+02
      1.945  0.0000E+00  0.0000E+00  0.2700E+02  0.2700E+02
      2.031  0.4707E-09  0.4416E-09  0.2700E+02  0.2700E+02
      2.118  0.2969E-03  0.2849E-03  0.2700E+02  0.2700E+02
      2.204  0.6675E+00  0.6541E+00  0.2706E+02  0.2706E+02
      2.291  0.1343E+02  0.1335E+02  0.2822E+02  0.2821E+02
      2.377  0.1920E+02  0.1919E+02  0.2988E+02  0.2987E+02
      2.464  0.1329E+02  0.1335E+02  0.3103E+02  0.3103E+02
      2.550  0.1063E+02  0.1061E+02  0.3195E+02  0.3195E+02
      2.637  0.1066E+02  0.1068E+02  0.3287E+02  0.3287E+02
      2.724  0.1462E+01  0.1493E+01  0.3300E+02  0.3300E+02
      2.810  0.1905E-02  0.1999E-02  0.3300E+02  0.3300E+02
      2.897  0.8463E-04  0.8047E-04  0.3300E+02  0.3300E+02
      2.983  0.3422E+00  0.3337E+00  0.3303E+02  0.3303E+02
      3.070  0.7893E+01  0.7858E+01  0.3371E+02  0.3371E+02
      3.156  0.3606E+01  0.3642E+01  0.3402E+02  0.3402E+02
      3.243  0.9878E+01  0.9801E+01  0.3488E+02  0.3487E+02
      3.329  0.2043E+02  0.2045E+02  0.3665E+02  0.3664E+02
      3.416  0.1214E+02  0.1210E+02  0.3770E+02  0.3769E+02
      3.502  0.2496E+02  0.2498E+02  0.3986E+02  0.3985E+02
      3.589  0.2462E+02  0.2457E+02  0.4199E+02  0.4198E+02
      3.675  0.2274E+02  0.2283E+02  0.4396E+02  0.4395E+02
      3.762  0.1298E+02  0.1296E+02  0.4508E+02  0.4507E+02
      3.848  0.2271E+02  0.2268E+02  0.4705E+02  0.4704E+02
      3.935  0.2545E+02  0.2541E+02  0.4925E+02  0.4924E+02
      4.022  0.2696E+02  0.2702E+02  0.5158E+02  0.5157E+02
      4.108  0.1643E+02  0.1641E+02  0.5300E+02  0.5299E+02
      4.195  0.2525E+02  0.2526E+02  0.5519E+02  0.5518E+02
      4.281  0.1430E+02  0.1432E+02  0.5643E+02  0.5642E+02
      4.368  0.6517E+01  0.6586E+01  0.5699E+02  0.5699E+02
      4.454  0.1252E+00  0.1302E+00  0.5700E+02  0.5700E+02
      4.541  0.1177E+01  0.1155E+01  0.5710E+02  0.5710E+02
      4.627  0.1081E+02  0.1078E+02  0.5804E+02  0.5803E+02
      4.714  0.1500E+02  0.1497E+02  0.5934E+02  0.5933E+02
      4.800  0.1819E+02  0.1824E+02  0.6091E+02  0.6091E+02
      4.887  0.1011E+02  0.1006E+02  0.6178E+02  0.6178E+02
      4.973  0.2338E+02  0.2333E+02  0.6381E+02  0.6380E+02
      5.060  0.1855E+02  0.1862E+02  0.6541E+02  0.6541E+02
      5.147  0.1628E+02  0.1622E+02  0.6682E+02  0.6681E+02
      5.233  0.2858E+02  0.2855E+02  0.6929E+02  0.6928E+02
      5.320  0.2916E+02  0.2918E+02  0.7182E+02  0.7181E+02
      5.406  0.2125E+02  0.2126E+02  0.7366E+02  0.7365E+02
      5.493  0.2019E+02  0.2021E+02  0.7540E+02  0.7540E+02
      5.579  0.1977E+02  0.1974E+02  0.7711E+02  0.7710E+02
      5.666  0.1374E+02  0.1381E+02  0.7830E+02  0.7830E+02
      5.752  0.9017E+01  0.9033E+01  0.7908E+02  0.7908E+02
      5.839  0.9718E+01  0.9712E+01  0.7992E+02  0.7992E+02
      5.925  0.9495E+01  0.9487E+01  0.8075E+02  0.8074E+02
      6.012  0.2930E+01  0.2976E+01  0.8100E+02  0.8100E+02
      6.098  0.1087E-01  0.1134E-01  0.8100E+02  0.8100E+02
      6.185  0.1596E-06  0.1714E-06  0.8100E+02  0.8100E+02
      6.271  0.7698E-14  0.7698E-14  0.8100E+02  0.8100E+02
      6.358  0.0000E+00  0.0000E+00  0.8100E+02  0.8100E+02
      6.445  0.0000E+00  0.0000E+00  0.8100E+02  0.8100E+02
      6.531  0.0000E+00  0.0000E+00  0.8100E+02  0.8100E+02
      6.618  0.0000E+00  0.0000E+00  0.8100E+02  0.8100E+02
      6.704  0.0000E+00  0.0000E+00  0.8100E+02  0.8100E+02
      6.791  0.0000E+00  0.0000E+00  0.8100E+02  0.8100E+02
      6.877  0.0000E+00  0.0000E+00  0.8100E+02  0.8100E+02
      6.964  0.2600E-10  0.2414E-10  0.8100E+02  0.8100E+02
      7.050  0.4458E-04  0.4243E-04  0.8100E+02  0.8100E+02
      7.137  0.2474E+00  0.2412E+00  0.8102E+02  0.8102E+02
      7.223  0.7421E+01  0.7383E+01  0.8166E+02  0.8166E+02
      7.310  0.4747E+01  0.4772E+01  0.8207E+02  0.8207E+02
      7.396  0.1858E+02  0.1846E+02  0.8368E+02  0.8367E+02
      7.483  0.2311E+02  0.2319E+02  0.8568E+02  0.8568E+02
      7.569  0.5576E+01  0.5589E+01  0.8616E+02  0.8616E+02
      7.656  0.1819E+02  0.1809E+02  0.8774E+02  0.8773E+02
      7.743  0.2380E+02  0.2390E+02  0.8980E+02  0.8979E+02
      7.829  0.7688E+01  0.7655E+01  0.9046E+02  0.9046E+02
      7.916  0.2009E+02  0.2010E+02  0.9220E+02  0.9220E+02
      8.002  0.8922E+01  0.8990E+01  0.9297E+02  0.9297E+02
      8.089  0.4495E+00  0.4536E+00  0.9301E+02  0.9301E+02
      8.175  0.6867E+01  0.6820E+01  0.9361E+02  0.9360E+02
      8.262  0.1154E+02  0.1153E+02  0.9461E+02  0.9460E+02
      8.348  0.9699E+01  0.9695E+01  0.9545E+02  0.9544E+02
      8.435  0.1553E+02  0.1554E+02  0.9679E+02  0.9678E+02
      8.521  0.1138E+02  0.1135E+02  0.9777E+02  0.9777E+02
      8.608  0.1563E+02  0.1564E+02  0.9913E+02  0.9912E+02
      8.694  0.2513E+02  0.2508E+02  0.1013E+03  0.1013E+03
      8.781  0.2766E+02  0.2764E+02  0.1037E+03  0.1037E+03
      8.867  0.2877E+02  0.2878E+02  0.1062E+03  0.1062E+03
      8.954  0.1640E+02  0.1646E+02  0.1076E+03  0.1076E+03
      9.041  0.1425E+02  0.1422E+02  0.1088E+03  0.1088E+03
      9.127  0.1845E+02  0.1843E+02  0.1104E+03  0.1104E+03
      9.214  0.2463E+02  0.2462E+02  0.1126E+03  0.1126E+03
      9.300  0.2976E+02  0.2975E+02  0.1151E+03  0.1151E+03
      9.387  0.1780E+02  0.1782E+02  0.1167E+03  0.1167E+03
      9.473  0.2750E+02  0.2751E+02  0.1191E+03  0.1190E+03
      9.560  0.1881E+02  0.1885E+02  0.1207E+03  0.1207E+03
      9.646  0.8540E+01  0.8533E+01  0.1214E+03  0.1214E+03
      9.733  0.1561E+02  0.1563E+02  0.1228E+03  0.1228E+03
      9.819  0.3255E+01  0.3280E+01  0.1231E+03  0.1231E+03
      9.906  0.1397E+02  0.1389E+02  0.1243E+03  0.1243E+03
      9.992  0.1704E+02  0.1707E+02  0.1257E+03  0.1257E+03
     10.079  0.1279E+02  0.1281E+02  0.1268E+03  0.1268E+03
     10.165  0.1471E+02  0.1461E+02  0.1281E+03  0.1281E+03
     10.252  0.3010E+02  0.3014E+02  0.1307E+03  0.1307E+03
     10.339  0.2444E+02  0.2442E+02  0.1328E+03  0.1328E+03
     10.425  0.2239E+02  0.2240E+02  0.1348E+03  0.1348E+03
     10.512  0.2586E+02  0.2586E+02  0.1370E+03  0.1370E+03
     10.598  0.1788E+02  0.1792E+02  0.1386E+03  0.1386E+03
     10.685  0.1372E+02  0.1373E+02  0.1398E+03  0.1397E+03
     10.771  0.1637E+02  0.1631E+02  0.1412E+03  0.1412E+03
     10.858  0.2929E+02  0.2924E+02  0.1437E+03  0.1437E+03
     10.944  0.2675E+02  0.2681E+02  0.1460E+03  0.1460E+03
     11.031  0.1114E+02  0.1124E+02  0.1470E+03  0.1470E+03
     11.117  0.2341E+00  0.2408E+00  0.1470E+03  0.1470E+03
     11.204  0.3159E+00  0.3065E+00  0.1470E+03  0.1470E+03
     11.290  0.1457E+02  0.1442E+02  0.1483E+03  0.1483E+03
     11.377  0.2072E+02  0.2082E+02  0.1501E+03  0.1501E+03
     11.464  0.1533E+02  0.1530E+02  0.1514E+03  0.1514E+03
     11.550  0.1950E+02  0.1948E+02  0.1531E+03  0.1531E+03
     11.637  0.2037E+02  0.2038E+02  0.1549E+03  0.1548E+03
     11.723  0.2827E+02  0.2824E+02  0.1573E+03  0.1573E+03
     11.810  0.1787E+02  0.1789E+02  0.1589E+03  0.1588E+03
     11.896  0.2395E+02  0.2393E+02  0.1609E+03  0.1609E+03
     11.983  0.2388E+02  0.2393E+02  0.1630E+03  0.1630E+03
     12.069  0.1702E+02  0.1699E+02  0.1645E+03  0.1645E+03
     12.156  0.2103E+02  0.2103E+02  0.1663E+03  0.1663E+03
     12.242  0.2204E+02  0.2205E+02  0.1682E+03  0.1682E+03
     12.329  0.1800E+02  0.1804E+02  0.1697E+03  0.1697E+03
     12.415  0.9148E+01  0.9146E+01  0.1705E+03  0.1705E+03
     12.502  0.5267E+01  0.5320E+01  0.1710E+03  0.1710E+03
     12.588  0.1123E+01  0.1104E+01  0.1711E+03  0.1711E+03
     12.675  0.8972E+01  0.8965E+01  0.1719E+03  0.1719E+03
     12.762  0.1824E+01  0.1845E+01  0.1720E+03  0.1720E+03
     12.848  0.7792E+01  0.7755E+01  0.1727E+03  0.1727E+03
     12.935  0.8940E+01  0.8926E+01  0.1735E+03  0.1735E+03
     13.021  0.6025E+01  0.6079E+01  0.1740E+03  0.1740E+03
     13.108  0.5073E+01  0.5020E+01  0.1744E+03  0.1744E+03
     13.194  0.1902E+02  0.1898E+02  0.1761E+03  0.1761E+03
     13.281  0.1899E+02  0.1904E+02  0.1777E+03  0.1777E+03
     13.367  0.4850E+01  0.4863E+01  0.1781E+03  0.1781E+03
     13.454  0.8989E+01  0.8998E+01  0.1789E+03  0.1789E+03
     13.540  0.5652E+01  0.5627E+01  0.1794E+03  0.1794E+03
     13.627  0.7336E+01  0.7365E+01  0.1800E+03  0.1800E+03
     13.713  0.1268E+02  0.1261E+02  0.1811E+03  0.1811E+03
     13.800  0.2039E+02  0.2041E+02  0.1829E+03  0.1829E+03
     13.886  0.1890E+02  0.1889E+02  0.1845E+03  0.1845E+03
     13.973  0.2087E+02  0.2085E+02  0.1863E+03  0.1863E+03
     14.060  0.2372E+02  0.2370E+02  0.1884E+03  0.1884E+03
     14.146  0.1842E+02  0.1850E+02  0.1900E+03  0.1900E+03
     14.233  0.1575E+02  0.1570E+02  0.1914E+03  0.1913E+03
     14.319  0.1836E+02  0.1838E+02  0.1929E+03  0.1929E+03
     14.406  0.1818E+02  0.1820E+02  0.1945E+03  0.1945E+03
     14.492  0.1162E+02  0.1160E+02  0.1955E+03  0.1955E+03
     14.579  0.3078E+02  0.3060E+02  0.1982E+03  0.1982E+03
     14.665  0.3102E+02  0.3107E+02  0.2009E+03  0.2009E+03
     14.752  0.1822E+02  0.1836E+02  0.2024E+03  0.2024E+03
     14.838  0.1278E+02  0.1279E+02  0.2036E+03  0.2035E+03
     14.925  0.2019E+02  0.2014E+02  0.2053E+03  0.2053E+03
     15.011  0.2937E+02  0.2936E+02  0.2078E+03  0.2078E+03
     15.098  0.2277E+02  0.2281E+02  0.2098E+03  0.2098E+03
     15.184  0.2064E+02  0.2063E+02  0.2116E+03  0.2116E+03
     15.271  0.1804E+02  0.1805E+02  0.2132E+03  0.2132E+03
     15.358  0.2097E+02  0.2094E+02  0.2150E+03  0.2150E+03
     15.444  0.1963E+02  0.1965E+02  0.2167E+03  0.2167E+03
     15.531  0.1924E+02  0.1921E+02  0.2183E+03  0.2183E+03
     15.617  0.3400E+02  0.3392E+02  0.2213E+03  0.2213E+03
     15.704  0.2700E+02  0.2709E+02  0.2236E+03  0.2236E+03
     15.790  0.1949E+02  0.1948E+02  0.2253E+03  0.2253E+03
     15.877  0.2086E+02  0.2083E+02  0.2271E+03  0.2271E+03
     15.963  0.2781E+02  0.2785E+02  0.2295E+03  0.2295E+03
     16.050  0.1584E+02  0.1581E+02  0.2309E+03  0.2309E+03
     16.136  0.3041E+02  0.3040E+02  0.2335E+03  0.2335E+03
     16.223  0.3037E+02  0.3035E+02  0.2361E+03  0.2361E+03
     16.309  0.2678E+02  0.2686E+02  0.2385E+03  0.2385E+03
     16.396  0.1239E+02  0.1239E+02  0.2395E+03  0.2395E+03
     16.482  0.1940E+02  0.1937E+02  0.2412E+03  0.2412E+03
     16.569  0.2515E+02  0.2515E+02  0.2434E+03  0.2434E+03
     16.656  0.1366E+02  0.1370E+02  0.2446E+03  0.2446E+03
     16.742  0.1758E+02  0.1754E+02  0.2461E+03  0.2461E+03
     16.829  0.2040E+02  0.2048E+02  0.2479E+03  0.2479E+03
     16.915  0.7745E+01  0.7693E+01  0.2485E+03  0.2485E+03
     17.002  0.1925E+02  0.1926E+02  0.2502E+03  0.2502E+03
     17.088  0.8969E+01  0.9031E+01  0.2510E+03  0.2510E+03
     17.175  0.3232E+00  0.3314E+00  0.2510E+03  0.2510E+03
     17.261  0.7511E-04  0.7894E-04  0.2510E+03  0.2510E+03
     17.348  0.5731E-10  0.6182E-10  0.2510E+03  0.2510E+03
     17.434  0.0000E+00  0.0000E+00  0.2510E+03  0.2510E+03
     17.521  0.0000E+00  0.0000E+00  0.2510E+03  0.2510E+03
     17.607  0.3524E-09  0.3254E-09  0.2510E+03  0.2510E+03
     17.694  0.2912E-03  0.2767E-03  0.2510E+03  0.2510E+03
     17.781  0.8588E+00  0.8378E+00  0.2511E+03  0.2511E+03
     17.867  0.1624E+02  0.1618E+02  0.2525E+03  0.2525E+03
     17.954  0.6709E+01  0.6775E+01  0.2531E+03  0.2531E+03
     18.040  0.8773E+01  0.8754E+01  0.2538E+03  0.2538E+03
     18.127  0.3895E+01  0.3898E+01  0.2542E+03  0.2542E+03
     18.213  0.1061E+02  0.1060E+02  0.2551E+03  0.2551E+03
     18.300  0.1037E+02  0.1039E+02  0.2560E+03  0.2560E+03
     18.386  0.1412E+02  0.1406E+02  0.2572E+03  0.2572E+03
     18.473  0.1984E+02  0.1983E+02  0.2589E+03  0.2589E+03
     18.559  0.2167E+02  0.2169E+02  0.2608E+03  0.2608E+03
     18.646  0.1394E+02  0.1397E+02  0.2620E+03  0.2620E+03
     18.732  0.1898E+02  0.1889E+02  0.2636E+03  0.2636E+03
     18.819  0.2264E+02  0.2268E+02  0.2656E+03  0.2656E+03
     18.905  0.1771E+02  0.1769E+02  0.2671E+03  0.2671E+03
     18.992  0.2888E+02  0.2884E+02  0.2696E+03  0.2696E+03
     19.079  0.3255E+02  0.3258E+02  0.2724E+03  0.2724E+03
     19.165  0.1859E+02  0.1863E+02  0.2741E+03  0.2740E+03
     19.252  0.2838E+02  0.2830E+02  0.2765E+03  0.2765E+03
     19.338  0.3665E+02  0.3667E+02  0.2797E+03  0.2797E+03
     19.425  0.2380E+02  0.2385E+02  0.2817E+03  0.2817E+03
     19.511  0.2471E+02  0.2468E+02  0.2839E+03  0.2839E+03
     19.598  0.3075E+02  0.3071E+02  0.2865E+03  0.2865E+03
     19.684  0.2597E+02  0.2601E+02  0.2888E+03  0.2888E+03
     19.771  0.2966E+02  0.2934E+02  0.2914E+03  0.2913E+03
     19.857  0.2876E+02  0.2885E+02  0.2938E+03  0.2938E+03
     19.944  0.2508E+02  0.2494E+02  0.2960E+03  0.2960E+03
     20.030  0.2032E+02  0.1904E+02  0.2978E+03  0.2976E+03
     20.117  0.2985E+02  0.2577E+02  0.3004E+03  0.2998E+03
     20.203  0.1815E+02  0.1755E+02  0.3019E+03  0.3014E+03
     20.290  0.1184E+02  0.9777E+01  0.3029E+03  0.3022E+03
     20.377  0.1126E+02  0.8619E+01  0.3039E+03  0.3030E+03
     20.463  0.8995E+00  0.2680E+01  0.3040E+03  0.3032E+03
     20.550  0.6273E-03  0.8709E+01  0.3040E+03  0.3039E+03
     20.636  0.1529E-08  0.6892E+00  0.3040E+03  0.3040E+03
     20.723  0.0000E+00  0.3582E-03  0.3040E+03  0.3040E+03
     20.809  0.0000E+00  0.6351E-09  0.3040E+03  0.3040E+03
     20.896  0.0000E+00  0.0000E+00  0.3040E+03  0.3040E+03
     20.982  0.0000E+00  0.0000E+00  0.3040E+03  0.3040E+03
     21.069  0.0000E+00  0.0000E+00  0.3040E+03  0.3040E+03
     21.155  0.0000E+00  0.0000E+00  0.3040E+03  0.3040E+03
     21.242  0.0000E+00  0.0000E+00  0.3040E+03  0.3040E+03
     21.328  0.0000E+00  0.0000E+00  0.3040E+03  0.3040E+03
     21.415  0.0000E+00  0.0000E+00  0.3040E+03  0.3040E+03
     21.501  0.0000E+00  0.0000E+00  0.3040E+03  0.3040E+03
     21.588  0.0000E+00  0.0000E+00  0.3040E+03  0.3040E+03
     21.675  0.0000E+00  0.0000E+00  0.3040E+03  0.3040E+03
