  100  100    1    2
  0.1064800E+02  0.1021149E-08  0.1021149E-08  0.1021149E-08  0.5000000E-15
  1.000000000000000E-004
  CAR 
 unknown system                          
    400      1    304
 
  0.0000000E+00  0.0000000E+00  0.0000000E+00  0.1000000E+01
    1       -3.105710     -3.105297   1.000000   1.000000
    2       -2.007568     -2.007144   1.000000   1.000000
    3       -1.907351     -1.906927   1.000000   1.000000
    4       -1.841325     -1.840910   1.000000   1.000000
    5       -1.690803     -1.690436   1.000000   1.000000
    6       -1.598032     -1.597627   1.000000   1.000000
    7       -1.521370     -1.520940   1.000000   1.000000
    8       -0.839382     -0.838947   1.000000   1.000000
    9       -0.697313     -0.696918   1.000000   1.000000
   10       -0.562574     -0.562210   1.000000   1.000000
   11       -0.490079     -0.489697   1.000000   1.000000
   12       -0.449242     -0.448846   1.000000   1.000000
   13       -0.361601     -0.361190   1.000000   1.000000
   14       -0.301088     -0.300641   1.000000   1.000000
   15       -0.185543     -0.185141   1.000000   1.000000
   16       -0.081933     -0.081518   1.000000   1.000000
   17       -0.031162     -0.030803   1.000000   1.000000
   18        0.017124      0.017593   1.000000   1.000000
   19        0.158892      0.159280   1.000000   1.000000
   20        0.800396      0.800748   1.000000   1.000000
   21        0.858904      0.859389   1.000000   1.000000
   22        0.915813      0.916265   1.000000   1.000000
   23        1.001816      1.002171   1.000000   1.000000
   24        1.068091      1.068521   1.000000   1.000000
   25        1.080917      1.081303   1.000000   1.000000
   26        1.247259      1.247649   1.000000   1.000000
   27        1.285277      1.285697   1.000000   1.000000
   28        2.261014      2.261353   1.000000   1.000000
   29        2.300424      2.300798   1.000000   1.000000
   30        2.360508      2.360951   1.000000   1.000000
   31        2.405597      2.406057   1.000000   1.000000
   32        2.513073      2.513479   1.000000   1.000000
   33        2.596597      2.597043   1.000000   1.000000
   34        3.049848      3.050240   1.000000   1.000000
   35        3.225073      3.225453   1.000000   1.000000
   36        3.278353      3.278772   1.000000   1.000000
   37        3.308770      3.309156   1.000000   1.000000
   38        3.423584      3.424041   1.000000   1.000000
   39        3.440403      3.440805   1.000000   1.000000
   40        3.476622      3.477067   1.000000   1.000000
   41        3.543858      3.544232   1.000000   1.000000
   42        3.573132      3.573523   1.000000   1.000000
   43        3.607923      3.608347   1.000000   1.000000
   44        3.629758      3.630144   1.000000   1.000000
   45        3.724033      3.724389   1.000000   1.000000
   46        3.800468      3.800841   1.000000   1.000000
   47        3.810945      3.811311   1.000000   1.000000
   48        3.874456      3.874879   1.000000   1.000000
   49        3.908997      3.909381   1.000000   1.000000
   50        3.955517      3.955986   1.000000   1.000000
   51        3.961911      3.962295   1.000000   1.000000
   52        4.009503      4.009959   1.000000   1.000000
   53        4.091607      4.092017   1.000000   1.000000
   54        4.131816      4.132198   1.000000   1.000000
   55        4.159789      4.160247   1.000000   1.000000
   56        4.204968      4.205363   1.000000   1.000000
   57        4.286399      4.286931   1.000000   1.000000
   58        4.585752      4.586132   1.000000   1.000000
   59        4.663038      4.663437   1.000000   1.000000
   60        4.737204      4.737554   1.000000   1.000000
   61        4.749522      4.749881   1.000000   1.000000
   62        4.872192      4.872654   1.000000   1.000000
   63        4.931262      4.931599   1.000000   1.000000
   64        4.962786      4.963256   1.000000   1.000000
   65        4.991756      4.992180   1.000000   1.000000
   66        5.066051      5.066401   1.000000   1.000000
   67        5.143555      5.143978   1.000000   1.000000
   68        5.169021      5.169446   1.000000   1.000000
   69        5.212416      5.212811   1.000000   1.000000
   70        5.237716      5.238093   1.000000   1.000000
   71        5.270043      5.270428   1.000000   1.000000
   72        5.307504      5.307890   1.000000   1.000000
   73        5.341284      5.341675   1.000000   1.000000
   74        5.412198      5.412618   1.000000   1.000000
   75        5.429354      5.429705   1.000000   1.000000
   76        5.499213      5.499684   1.000000   1.000000
   77        5.567271      5.567713   1.000000   1.000000
   78        5.579930      5.580363   1.000000   1.000000
   79        5.682967      5.683346   1.000000   1.000000
   80        5.796010      5.796425   1.000000   1.000000
   81        5.901956      5.902398   1.000000   1.000000
   82        7.208407      7.208779   1.000000   1.000000
   83        7.362866      7.363233   1.000000   1.000000
   84        7.395254      7.395675   1.000000   1.000000
   85        7.413838      7.414218   1.000000   1.000000
   86        7.462992      7.463374   1.000000   1.000000
   87        7.604677      7.605145   1.000000   1.000000
   88        7.663545      7.663945   1.000000   1.000000
   89        7.671785      7.672223   1.000000   1.000000
   90        7.708526      7.708933   1.000000   1.000000
   91        7.845536      7.845954   1.000000   1.000000
   92        7.866988      7.867396   1.000000   1.000000
   93        7.933061      7.933474   1.000000   1.000000
   94        8.166887      8.167248   1.000000   1.000000
   95        8.252216      8.252667   1.000000   1.000000
   96        8.357258      8.357641   1.000000   1.000000
   97        8.406827      8.407250   1.000000   1.000000
   98        8.509413      8.509790   1.000000   1.000000
   99        8.559248      8.559668   1.000000   1.000000
  100        8.645841      8.646205   1.000000   1.000000
  101        8.661256      8.661585   1.000000   1.000000
  102        8.695958      8.696329   1.000000   1.000000
  103        8.753763      8.754178   1.000000   1.000000
  104        8.760776      8.761170   1.000000   1.000000
  105        8.816689      8.817106   1.000000   1.000000
  106        8.840537      8.840990   1.000000   1.000000
  107        8.870044      8.870454   1.000000   1.000000
  108        8.946255      8.946651   1.000000   1.000000
  109        9.023197      9.023660   1.000000   1.000000
  110        9.077369      9.077807   1.000000   1.000000
  111        9.139442      9.139848   1.000000   1.000000
  112        9.164977      9.165438   1.000000   1.000000
  113        9.211149      9.211560   1.000000   1.000000
  114        9.260040      9.260432   1.000000   1.000000
  115        9.277862      9.278258   1.000000   1.000000
  116        9.297168      9.297593   1.000000   1.000000
  117        9.397788      9.398259   1.000000   1.000000
  118        9.410244      9.410604   1.000000   1.000000
  119        9.442983      9.443358   1.000000   1.000000
  120        9.493972      9.494368   1.000000   1.000000
  121        9.539629      9.540072   1.000000   1.000000
  122        9.657520      9.657952   1.000000   1.000000
  123        9.704008      9.704393   1.000000   1.000000
  124        9.876400      9.876825   1.000000   1.000000
  125        9.910839      9.911226   1.000000   1.000000
  126        9.975632      9.976010   1.000000   1.000000
  127       10.044773     10.045210   1.000000   1.000000
  128       10.156585     10.156928   1.000000   1.000000
  129       10.182897     10.183347   1.000000   1.000000
  130       10.197770     10.198211   1.000000   1.000000
  131       10.232411     10.232841   1.000000   1.000000
  132       10.302590     10.302976   1.000000   1.000000
  133       10.319357     10.319775   1.000000   1.000000
  134       10.359417     10.359795   1.000000   1.000000
  135       10.418683     10.419065   1.000000   1.000000
  136       10.456149     10.456575   1.000000   1.000000
  137       10.483933     10.484348   1.000000   1.000000
  138       10.531826     10.532243   1.000000   1.000000
  139       10.592752     10.593160   1.000000   1.000000
  140       10.663049     10.663470   1.000000   1.000000
  141       10.758409     10.758818   1.000000   1.000000
  142       10.772531     10.772904   1.000000   1.000000
  143       10.842854     10.843247   1.000000   1.000000
  144       10.847150     10.847613   1.000000   1.000000
  145       10.866308     10.866691   1.000000   1.000000
  146       10.928296     10.928710   1.000000   1.000000
  147       10.957009     10.957406   1.000000   1.000000
  148       11.274444     11.274861   1.000000   1.000000
  149       11.298247     11.298726   1.000000   1.000000
  150       11.320156     11.320626   1.000000   1.000000
  151       11.414469     11.414831   1.000000   1.000000
  152       11.467439     11.467849   1.000000   1.000000
  153       11.529046     11.529454   1.000000   1.000000
  154       11.563602     11.563951   1.000000   1.000000
  155       11.616701     11.617109   1.000000   1.000000
  156       11.683523     11.683914   1.000000   1.000000
  157       11.692426     11.692865   1.000000   1.000000
  158       11.712417     11.712846   1.000000   1.000000
  159       11.806292     11.806717   1.000000   1.000000
  160       11.828141     11.828563   1.000000   1.000000
  161       11.886321     11.886752   1.000000   1.000000
  162       11.916237     11.916648   1.000000   1.000000
  163       11.951062     11.951447   1.000000   1.000000
  164       12.011747     12.012122   1.000000   1.000000
  165       12.081725     12.082184   1.000000   1.000000
  166       12.105672     12.106127   1.000000   1.000000
  167       12.176635     12.177075   1.000000   1.000000
  168       12.201218     12.201638   1.000000   1.000000
  169       12.260727     12.261109   1.000000   1.000000
  170       12.303311     12.303731   1.000000   1.000000
  171       12.411870     12.412291   1.000000   1.000000
  172       12.635470     12.635868   1.000000   1.000000
  173       12.830103     12.830467   1.000000   1.000000
  174       12.936772     12.937216   1.000000   1.000000
  175       13.115660     13.116071   1.000000   1.000000
  176       13.180137     13.180452   1.000000   1.000000
  177       13.202857     13.203219   1.000000   1.000000
  178       13.258124     13.258513   1.000000   1.000000
  179       13.404889     13.405338   1.000000   1.000000
  180       13.548413     13.548799   1.000000   1.000000
  181       13.682984     13.683384   1.000000   1.000000
  182       13.732700     13.733074   1.000000   1.000000
  183       13.773930     13.774272   1.000000   1.000000
  184       13.835824     13.836196   1.000000   1.000000
  185       13.880685     13.881106   1.000000   1.000000
  186       13.946994     13.947425   1.000000   1.000000
  187       13.968958     13.969356   1.000000   1.000000
  188       14.043936     14.044322   1.000000   1.000000
  189       14.049865     14.050281   1.000000   1.000000
  190       14.099748     14.100140   1.000000   1.000000
  191       14.193638     14.194020   1.000000   1.000000
  192       14.237137     14.237588   1.000000   1.000000
  193       14.293315     14.293696   1.000000   1.000000
  194       14.351966     14.352358   1.000000   1.000000
  195       14.398316     14.398684   1.000000   1.000000
  196       14.509220     14.509615   0.999689   0.999676
  197       14.523000     14.523358   0.998785   0.998743
  198       14.565823     14.566337   0.965668   0.964548
  199       14.590481     14.591024   0.869327   0.866039
  200       14.607222     14.608035   0.742053   0.734569
  201       14.637594     14.639083   0.417086   0.400721
  202       14.701723     14.702178   0.021526   0.020872
  203       14.749855     14.750259   0.000356   0.000342
  204       14.839505     14.839924   0.000000   0.000000
  205       14.889667     14.890038   0.000000   0.000000
  206       14.942468     14.942910   0.000000   0.000000
  207       14.963347     14.963731   0.000000   0.000000
  208       14.996548     14.996926   0.000000   0.000000
  209       15.034270     15.034663   0.000000   0.000000
  210       15.075444     15.075826   0.000000   0.000000
  211       15.144358     15.144753   0.000000   0.000000
  212       15.170766     15.171147   0.000000   0.000000
  213       15.234812     15.235173   0.000000   0.000000
  214       15.290193     15.290596   0.000000   0.000000
  215       15.343068     15.343417   0.000000   0.000000
  216       15.373139     15.373531   0.000000   0.000000
  217       15.433981     15.434396   0.000000   0.000000
  218       15.492971     15.493300   0.000000   0.000000
  219       15.542792     15.543183   0.000000   0.000000
  220       15.579445     15.579795   0.000000   0.000000
  221       15.597745     15.598138   0.000000   0.000000
  222       15.617769     15.618178   0.000000   0.000000
  223       15.643632     15.644048   0.000000   0.000000
  224       15.695935     15.696301   0.000000   0.000000
  225       15.753354     15.753756   0.000000   0.000000
  226       15.797386     15.797748   0.000000   0.000000
  227       15.854399     15.854815   0.000000   0.000000
  228       15.899181     15.899627   0.000000   0.000000
  229       15.922011     15.922386   0.000000   0.000000
  230       15.948363     15.948769   0.000000   0.000000
  231       16.049052     16.049436   0.000000   0.000000
  232       16.070875     16.071317   0.000000   0.000000
  233       16.095787     16.096166   0.000000   0.000000
  234       16.137155     16.137527   0.000000   0.000000
  235       16.172240     16.172677   0.000000   0.000000
  236       16.200978     16.201450   0.000000   0.000000
  237       16.238173     16.238591   0.000000   0.000000
  238       16.258911     16.259316   0.000000   0.000000
  239       16.304312     16.304670   0.000000   0.000000
  240       16.399390     16.399799   0.000000   0.000000
  241       16.446253     16.446659   0.000000   0.000000
  242       16.501515     16.501921   0.000000   0.000000
  243       16.534918     16.535328   0.000000   0.000000
  244       16.562223     16.562670   0.000000   0.000000
  245       16.651042     16.651523   0.000000   0.000000
  246       16.724727     16.725136   0.000000   0.000000
  247       16.760077     16.760473   0.000000   0.000000
  248       16.786232     16.786628   0.000000   0.000000
  249       16.925193     16.925646   0.000000   0.000000
  250       16.953239     16.953646   0.000000   0.000000
  251       17.020617     17.021003   0.000000   0.000000
  252       17.839536     17.839961   0.000000   0.000000
  253       17.848731     17.849097   0.000000   0.000000
  254       18.007883     18.008293   0.000000   0.000000
  255       18.162318     18.162730   0.000000   0.000000
  256       18.249825     18.250229   0.000000   0.000000
  257       18.358434     18.358831   0.000000   0.000000
  258       18.395561     18.396009   0.000000   0.000000
  259       18.465734     18.466063   0.000000   0.000000
  260       18.488921     18.489348   0.000000   0.000000
  261       18.543343     18.543729   0.000000   0.000000
  262       18.597638     18.598039   0.000000   0.000000
  263       18.701231     18.701737   0.000000   0.000000
  264       18.717333     18.717747   0.000000   0.000000
  265       18.770265     18.770776   0.000000   0.000000
  266       18.807568     18.807973   0.000000   0.000000
  267       18.876024     18.876452   0.000000   0.000000
  268       18.927202     18.927646   0.000000   0.000000
  269       18.963092     18.963496   0.000000   0.000000
  270       18.988645     18.988993   0.000000   0.000000
  271       19.014719     19.015079   0.000000   0.000000
  272       19.050119     19.050567   0.000000   0.000000
  273       19.066091     19.066518   0.000000   0.000000
  274       19.134721     19.135164   0.000000   0.000000
  275       19.194833     19.195198   0.000000   0.000000
  276       19.225316     19.225703   0.000000   0.000000
  277       19.261970     19.262452   0.000000   0.000000
  278       19.267325     19.267690   0.000000   0.000000
  279       19.305564     19.305993   0.000000   0.000000
  280       19.330909     19.331339   0.000000   0.000000
  281       19.356795     19.357214   0.000000   0.000000
  282       19.414033     19.414514   0.000000   0.000000
  283       19.465835     19.466270   0.000000   0.000000
  284       19.491558     19.492002   0.000000   0.000000
  285       19.546379     19.546795   0.000000   0.000000
  286       19.556550     19.556970   0.000000   0.000000
  287       19.595784     19.596353   0.000000   0.000000
  288       19.631154     19.631690   0.000000   0.000000
  289       19.659659     19.660213   0.000000   0.000000
  290       19.737096     19.737931   0.000000   0.000000
  291       19.758928     19.760039   0.000000   0.000000
  292       19.761062     19.761227   0.000000   0.000000
  293       19.796386     19.797987   0.000000   0.000000
  294       19.829954     19.832035   0.000000   0.000000
  295       19.907254     19.908911   0.000000   0.000000
  296       19.928492     19.929668   0.000000   0.000000
  297       19.945488     19.947023   0.000000   0.000000
  298       20.025498     20.029184   0.000000   0.000000
  299       20.070470     20.078791   0.000000   0.000000
  300       20.078120     20.099629   0.000000   0.000000
  301       20.118090     20.135434   0.000000   0.000000
  302       20.162200     20.213227   0.000000   0.000000
  303       20.260905     20.316841   0.000000   0.000000
  304       20.326224     20.494539   0.000000   0.000000
