       N       E                     dE             d eps       ncg     rms          rms(c)
RMM:   1     0.139691676989E+04    0.13969E+04   -0.74866E+04   608   0.514E+02
RMM:   2     0.190082320871E+02   -0.13779E+04   -0.13252E+04   608   0.120E+02
RMM:   3    -0.271498430842E+03   -0.29051E+03   -0.28260E+03   608   0.497E+01
RMM:   4    -0.352251753159E+03   -0.80753E+02   -0.67552E+02   608   0.284E+01
RMM:   5    -0.378214505405E+03   -0.25963E+02   -0.21188E+02   608   0.129E+01
RMM:   6    -0.387698033944E+03   -0.94835E+01   -0.73232E+01   608   0.763E+00
RMM:   7    -0.391198986937E+03   -0.35010E+01   -0.28740E+01   608   0.388E+00
RMM:   8    -0.392603036143E+03   -0.14040E+01   -0.11485E+01   608   0.239E+00
RMM:   9    -0.393416048879E+03   -0.81301E+00   -0.74252E+00  1512   0.128E+00
RMM:  10    -0.393505088935E+03   -0.89040E-01   -0.47688E-01  1476   0.242E-01
RMM:  11    -0.393507012985E+03   -0.19240E-02   -0.13533E-02  1371   0.430E-02
RMM:  12    -0.393507027174E+03   -0.14190E-04   -0.14385E-04  1083   0.610E-03    0.630E+01
RMM:  13    -0.398143818033E+03   -0.46368E+01   -0.13763E+01  1330   0.379E+00    0.380E+01
RMM:  14    -0.405667162564E+03   -0.75233E+01   -0.59846E+00  1341   0.293E+00    0.176E+01
RMM:  15    -0.406442353230E+03   -0.77519E+00   -0.95248E-01  1396   0.112E+00    0.366E+00
RMM:  16    -0.406596447206E+03   -0.15409E+00   -0.35256E-01  1402   0.664E-01    0.239E+00
RMM:  17    -0.406695892862E+03   -0.99446E-01   -0.10973E-01  1421   0.343E-01    0.136E+00
RMM:  18    -0.406739733322E+03   -0.43840E-01   -0.37240E-02  1405   0.208E-01    0.666E-01
RMM:  19    -0.406749367331E+03   -0.96340E-02   -0.11900E-02  1421   0.121E-01    0.290E-01
RMM:  20    -0.406752045115E+03   -0.26778E-02   -0.36875E-03  1439   0.714E-02    0.151E-01
RMM:  21    -0.406753030383E+03   -0.98527E-03   -0.13517E-03  1424   0.427E-02    0.982E-02
RMM:  22    -0.406753539425E+03   -0.50904E-03   -0.70002E-04  1408   0.314E-02    0.686E-02
RMM:  23    -0.406753919825E+03   -0.38040E-03   -0.77696E-04  1388   0.341E-02    0.441E-02
RMM:  24    -0.406754105574E+03   -0.18575E-03   -0.51930E-04  1395   0.276E-02    0.259E-02
RMM:  25    -0.406754175156E+03   -0.69582E-04   -0.26402E-04  1411   0.194E-02    0.135E-02
RMM:  26    -0.406754194598E+03   -0.19442E-04   -0.94431E-05  1436   0.114E-02    0.678E-03
RMM:  27    -0.406754199907E+03   -0.53087E-05   -0.29642E-05  1069   0.644E-03
   1 F= -.40675420E+03 E0= -.40671664E+03  d E =-.751257E-01  mag=     0.0132
