 vasp.5.4.4.18Apr17-6-g9f103f2a35 (build Sep 16 2020 16:20:45) complex          
  
 executed on             LinuxIFC date 2021.08.10  00:45:13
 running on   16 total cores
 distrk:  each k-point on   16 cores,    1 groups
 distr:  one band on NCORES_PER_BAND=   1 cores,   16 groups


--------------------------------------------------------------------------------------------------------


 INCAR:
 POTCAR:    PAW_PBE Si 05Jan2001                  

 ----------------------------------------------------------------------------- 
|                                                                             |
|           W    W    AA    RRRRR   N    N  II  N    N   GGGG   !!!           |
|           W    W   A  A   R    R  NN   N  II  NN   N  G    G  !!!           |
|           W    W  A    A  R    R  N N  N  II  N N  N  G       !!!           |
|           W WW W  AAAAAA  RRRRR   N  N N  II  N  N N  G  GGG   !            |
|           WW  WW  A    A  R   R   N   NN  II  N   NN  G    G                |
|           W    W  A    A  R    R  N    N  II  N    N   GGGG   !!!           |
|                                                                             |
|      For optimal performance we recommend to set                            |
|        NCORE= 4 - approx SQRT( number of cores)                             |
|      NCORE specifies how many cores store one orbital (NPAR=cpu/NCORE).     |
|      This setting can  greatly improve the performance of VASP for DFT.     |
|      The default,   NCORE=1            might be grossly inefficient         |
|      on modern multi-core architectures or massively parallel machines.     |
|      Do your own testing !!!!                                               |
|      Unfortunately you need to use the default for GW and RPA calculations. |
|      (for HF NCORE is supported but not extensively tested yet)             |
|                                                                             |
 ----------------------------------------------------------------------------- 

 POTCAR:    PAW_PBE Si 05Jan2001                  
   SHA256 =  79d9987ad8750f624c4d6acb2a16d13abf6a777132adc04dc6c8399be72b42bb Si
   COPYR  = (c) Copyright 05Jan2001 Georg Kresse                                
   COPYR  = This file is part of the software VASP. Any use, copying, and all ot
   COPYR  = If you do not have a valid VASP license, you may not use, copy or di
   VRHFIN =Si: s2p2                                                             
   LEXCH  = PE                                                                  
   EATOM  =   103.0669 eV,    7.5752 Ry                                         
                                                                                
   TITEL  = PAW_PBE Si 05Jan2001                                                
   LULTRA =        F    use ultrasoft PP ?                                      
   IUNSCR =        1    unscreen: 0-lin 1-nonlin 2-no                           
   RPACOR =    1.500    partial core radius                                     
   POMASS =   28.085; ZVAL   =    4.000    mass and valenz                      
   RCORE  =    1.900    outmost cutoff radius                                   
   RWIGS  =    2.480; RWIGS  =    1.312    wigner-seitz radius (au A)           
   ENMAX  =  245.345; ENMIN  =  184.009 eV                                      
   ICORE  =        2    local potential                                         
   LCOR   =        T    correct aug charges                                     
   LPAW   =        T    paw PP                                                  
   EAUG   =  322.069                                                            
   DEXC   =    0.000                                                            
   RMAX   =    1.950    core radius for proj-oper                               
   RAUG   =    1.300    factor for augmentation sphere                          
   RDEP   =    1.993    radius for radial grids                                 
   RDEPT  =    1.837    core radius for aug-charge                              
                                                                                
   Atomic configuration                                                         
    6 entries                                                                   
     n  l   j            E        occ.                                          
     1  0  0.50     -1785.8828   2.0000                                         
     2  0  0.50      -139.4969   2.0000                                         
     2  1  1.50       -95.5546   6.0000                                         
     3  0  0.50       -10.8127   2.0000                                         
     3  1  0.50        -4.0811   2.0000                                         
     3  2  1.50        -4.0817   0.0000                                         
   Description                                                                  
     l       E           TYP  RCUT    TYP  RCUT                                 
     0    -10.8127223     23  1.900                                             
     0     -7.6451159     23  1.900                                             
     1     -4.0811372     23  1.900                                             
     1      2.4879257     23  1.900                                             
     2     -4.0817478      7  1.900                                             
  local pseudopotential read in
  partial core-charges read in
  partial kinetic energy density read in
  atomic valenz-charges read in
  non local Contribution for L=           0  read in
    real space projection operators read in
  non local Contribution for L=           0  read in
    real space projection operators read in
  non local Contribution for L=           1  read in
    real space projection operators read in
  non local Contribution for L=           1  read in
    real space projection operators read in
    PAW grid and wavefunctions read in
 
   number of l-projection  operators is LMAX  =           4
   number of lm-projection operators is LMMAX =           8
 
 Optimization of the real space projectors (new method)

 maximal supplied QI-value         = 19.84
 optimisation between [QCUT,QGAM] = [  7.94, 15.87] = [ 17.64, 70.56] Ry 
 Optimized for a Real-space Cutoff    1.57 Angstroem

   l    n(q)    QCUT    max X(q) W(low)/X(q) W(high)/X(q)  e(spline) 
   0      7     7.937   159.560    0.16E-03    0.38E-03    0.13E-06
   0      7     7.937   115.863    0.15E-03    0.37E-03    0.13E-06
   1      7     7.937    88.339    0.42E-03    0.67E-03    0.13E-06
   1      7     7.937    48.592    0.41E-03    0.65E-03    0.13E-06
  PAW_PBE Si 05Jan2001                  :
 energy of atom  1       EATOM= -103.0669
 kinetic energy error for atom=    0.0056 (will be added to EATOM!!)
 
 
 POSCAR: Si                                      
  positions in cartesian coordinates
  No initial velocities read in
 exchange correlation table for  LEXCH =        8
   RHO(1)=    0.500       N(1)  =     2000
   RHO(2)=  100.500       N(2)  =     4000
 


--------------------------------------------------------------------------------------------------------


 ion  position               nearest neighbor table
   1  0.114  0.080  0.928-  12 2.09  64 2.25  13 2.32  74 2.37  32 2.40  16 2.55  91 2.60  36 2.66
                            44 2.70  71 2.73  53 2.77  77 2.84  23 2.92
   2  0.424  0.434  0.165-  14 2.20  18 2.25  39 2.29  93 2.35  85 2.35  50 2.44  94 2.44  95 2.49
                            46 2.55   3 2.68  24 3.07  90 3.13
   3  0.326  0.303  0.960-  29 2.16  32 2.29  75 2.31  57 2.33  12 2.36  46 2.37  39 2.44  85 2.53
                             2 2.68  77 2.79  44 2.80  94 2.87
   4  0.889  0.363  0.115-  97 2.24  90 2.27  68 2.31  44 2.33  74 2.36  26 2.38  17 2.50  25 2.53
                            81 2.64  71 2.68  86 2.69  15 2.96  14 3.13
   5  0.493  0.983  0.714-  84 2.06  22 2.14  77 2.29  62 2.34  91 2.41  31 2.48  10 2.49  30 2.60
                            29 2.75  48 2.92  55 3.01  45 3.03  53 3.15
   6  0.620  0.029  0.236-  87 2.21  55 2.25  98 2.30  25 2.32  20 2.42  37 2.45  60 2.46  85 2.61
                            86 2.62  82 2.76  40 2.81   9 2.97
   7  0.806  0.432  0.677-  80 2.15  83 2.26  72 2.35  73 2.36  34 2.37  69 2.43  56 2.46  97 2.53
                            79 2.55  41 2.56
   8  0.256  0.409  0.454-  95 2.11  99 2.19  66 2.22  43 2.37  33 2.38  15 2.45  28 2.47  42 2.49
                            76 2.60  18 2.73  41 2.79  93 2.87  39 3.09
   9  0.344  0.938  0.256-  67 2.19  37 2.26  49 2.29  16 2.31  24 2.36  98 2.45  65 2.46  87 2.46
                            35 2.64  32 2.69  22 2.80   6 2.97  88 3.13
  10  0.733  0.011  0.746-  48 2.22  83 2.24  11 2.28  23 2.36  13 2.38  30 2.38  62 2.41  40 2.48
                             5 2.49  84 2.56  21 2.86  38 3.13  55 3.15  36 3.15
  11  0.823  0.045  0.545-  55 2.18  38 2.19  83 2.25  10 2.28  27 2.39  89 2.48  30 2.51  56 2.60
                            82 2.69  92 2.89  13 2.99  84 3.09  36 3.13
  12  0.184  0.220  0.798-  91 2.05   1 2.09  73 2.26   3 2.36  42 2.37  44 2.44  29 2.50  89 2.77
                            13 2.79  28 2.80  57 2.85  77 2.97  75 3.12
  13  0.928  0.125  0.807-  73 2.20  71 2.27   1 2.32  83 2.36  23 2.37  10 2.38  36 2.41  89 2.48
                            97 2.61  12 2.79  48 2.96  44 2.96  11 2.99
  14  0.618  0.400  0.254-  68 2.19   2 2.20  50 2.29  90 2.35  18 2.36  95 2.44  92 2.50  86 2.54
                            69 2.60  25 2.65  85 2.76  52 3.01  46 3.12   4 3.13
  15  0.070  0.469  0.315-  17 2.33  41 2.34  47 2.36  39 2.38   8 2.45  76 2.48  63 2.49  93 2.56
                            68 2.60  81 2.93   4 2.96  66 2.99  43 3.03
  16  0.270  0.922  0.043-  19 2.21  32 2.23  77 2.24   9 2.31  64 2.32  53 2.32  87 2.38   1 2.55
                            45 2.64  67 2.67  49 2.68  24 2.74
  17  0.995  0.254  0.306-  74 2.07  27 2.24  66 2.30  56 2.32  15 2.33  25 2.38  43 2.45   4 2.50
                            68 2.50  67 2.87  39 2.92
  18  0.465  0.542  0.353-   2 2.25  95 2.26  50 2.28 100 2.29  93 2.31  65 2.32  14 2.36  99 2.51
                            69 2.56  52 2.69   8 2.73  24 2.76  33 2.85
  19  0.222  0.713  0.008-  47 2.15  16 2.21  96 2.35  53 2.37  94 2.40  75 2.46  45 2.51  49 2.55
                            51 2.55  24 2.58  64 2.68  93 2.73
  20  0.681  0.817  0.150-  60 2.27  40 2.27  61 2.31  50 2.36  98 2.38   6 2.42  82 2.47  87 2.51
                            54 2.51  52 2.53  81 2.79  24 2.86
  21  0.830  0.748  0.753-  62 2.25  80 2.33  23 2.37  38 2.40  79 2.41  96 2.46  30 2.61  54 2.65
                            70 2.68  72 2.71  36 2.72  10 2.86  61 3.14
  22  0.436  0.953  0.514-   5 2.14  55 2.19  37 2.21  35 2.24  98 2.40  65 2.60  30 2.69  59 2.72
                            31 2.77  84 2.77   9 2.80  28 2.91  91 2.95 100 3.05
  23  0.879  0.919  0.902-  40 2.15  64 2.20  54 2.21  36 2.28  10 2.36  13 2.37  21 2.37  71 2.38
                            96 2.52  60 2.84   1 2.92  62 3.08
  24  0.415  0.735  0.170-  93 2.17  50 2.18  65 2.35   9 2.36  98 2.46  49 2.50  19 2.58  45 2.61
                            94 2.63  87 2.66  16 2.74  18 2.76  20 2.86   2 3.07  61 3.08
  25  0.776  0.193  0.255-  86 2.14   6 2.32  92 2.36  17 2.38  27 2.39  68 2.49   4 2.53  60 2.57
                            14 2.65  71 2.68  74 3.01  56 3.04  55 3.06
  26  0.949  0.539  0.974-  54 2.19  72 2.23  47 2.27  44 2.34   4 2.38  96 2.44  80 2.48  81 2.48
                            97 2.49  75 2.50  90 2.67
  27  0.936  0.045  0.339-  60 2.09  17 2.24  67 2.36  25 2.39  11 2.39  88 2.40  82 2.55  58 2.83
                            74 2.86  38 2.99  89 3.00  56 3.04
  28  0.338  0.214  0.571-  35 2.26  66 2.35  99 2.36  29 2.41  91 2.41  95 2.42  84 2.45   8 2.47
                            37 2.56  43 2.76  12 2.80  22 2.91  42 2.97
  29  0.428  0.234  0.788-  84 2.16   3 2.16  34 2.19  57 2.31  77 2.31  28 2.41  48 2.43  12 2.50
                            46 2.54  91 2.55   5 2.75  99 2.98
  30  0.671  0.856  0.583-  55 2.20  62 2.24  38 2.31  10 2.38  79 2.43  82 2.44 100 2.45  11 2.51
                             5 2.60  21 2.61  22 2.69  98 2.79  52 3.09
  31  0.393  0.762  0.702-  59 2.21  33 2.24  45 2.28  53 2.29  78 2.37 100 2.48   5 2.48  51 2.49
                            62 2.55  22 2.77
  32  0.270  0.133  0.096-  85 2.17  16 2.23  67 2.28   3 2.29   1 2.40  74 2.45  77 2.48  43 2.51
                            39 2.57   9 2.69  87 2.93
  33  0.323  0.587  0.589-  99 2.07  31 2.24  76 2.24  51 2.26   8 2.38 100 2.39  57 2.47  42 2.56
                            65 2.57  59 2.58  78 2.68  18 2.85  70 3.06
  34  0.590  0.359  0.722-  29 2.19  84 2.22  99 2.31  83 2.36  78 2.37   7 2.37  48 2.41  46 2.44
                            69 2.58  57 2.69  80 2.82  97 3.07  92 3.08
  35  0.242  0.043  0.468-  88 2.23  22 2.24  28 2.26  37 2.33  43 2.34  66 2.35  89 2.39  67 2.43
                            59 2.61   9 2.64  91 2.66
  36  0.029  0.925  0.737-  89 2.07  23 2.28  96 2.38  53 2.39  13 2.41  38 2.54   1 2.66  59 2.70
                            21 2.72  91 2.76  70 2.77  64 3.10  11 3.13  10 3.15
  37  0.434  0.109  0.364-  95 2.21  22 2.21   9 2.26  35 2.33  55 2.37  43 2.39   6 2.45  85 2.48
                            28 2.56  92 2.91  98 2.98
  38  0.893  0.842  0.546-  82 2.17  11 2.19  70 2.28  30 2.31  79 2.38  21 2.40  88 2.44  63 2.53
                            36 2.54  89 2.98  27 2.99  10 3.13
  39  0.210  0.370  0.157-   2 2.29  43 2.29  75 2.32  15 2.38   3 2.44  93 2.51  44 2.57  32 2.57
                            74 2.60  47 2.76  17 2.92  85 3.07   8 3.09
  40  0.687  0.960  0.979-  23 2.15  87 2.15  20 2.27  10 2.48  71 2.48  48 2.54  60 2.55  62 2.56
                             6 2.81  86 2.93  54 2.96  61 3.01
  41  0.006  0.482  0.535-  42 2.25  70 2.25  56 2.29  63 2.34  15 2.34  72 2.38  76 2.52   7 2.56
                            73 2.57  66 2.78   8 2.79  79 2.90  68 2.95
  42  0.160  0.418  0.678-  73 2.04  57 2.22  41 2.25  72 2.27  51 2.35  12 2.37   8 2.49  33 2.56
                            66 2.67  75 2.95  28 2.97  99 3.07  70 3.07
  43  0.232  0.220  0.322-  66 2.05  67 2.28  39 2.29  35 2.34   8 2.37  95 2.38  37 2.39  17 2.45
                            32 2.51  28 2.76  74 2.89  85 2.98  15 3.03
  44  0.055  0.335  0.962-  75 2.00  74 2.22   4 2.33  26 2.34  97 2.39  12 2.44  39 2.57  73 2.59
                             1 2.70   3 2.80  13 2.96  71 2.99  72 2.99
  45  0.443  0.774  0.919-  94 2.16  62 2.26  31 2.28  61 2.38  53 2.48  19 2.51  87 2.53  24 2.61
                            16 2.64  78 2.72  77 2.81   5 3.03
  46  0.548  0.370  0.958-  90 2.22  86 2.26   3 2.37  34 2.44  48 2.45  94 2.52  29 2.54   2 2.55
                            85 2.67  57 2.82  97 2.92  78 2.96  80 3.02  14 3.12
  47  0.088  0.610  0.133-  19 2.15  93 2.21  26 2.27  49 2.31  15 2.36  58 2.37  75 2.43  81 2.44
                            39 2.76  54 2.89  96 3.00
  48  0.647  0.175  0.860-  10 2.22  83 2.30  86 2.33  84 2.41  34 2.41  29 2.43  46 2.45  97 2.53
                            40 2.54  71 2.84   5 2.92  13 2.96  77 3.00
  49  0.186  0.780  0.246-  58 2.07  93 2.12   9 2.29  47 2.31  88 2.34  65 2.39  76 2.47  24 2.50
                            67 2.54  19 2.55  16 2.68  64 2.85
  50  0.587  0.609  0.179-  52 2.14  61 2.17  24 2.18  90 2.19  18 2.28  14 2.29  20 2.36   2 2.44
                            81 2.74  94 2.83  98 2.92
  51  0.209  0.621  0.776-  33 2.26  57 2.29  96 2.30  42 2.35  72 2.37  75 2.37  31 2.49  53 2.50
                            70 2.51  19 2.55  59 2.79  94 2.88
  52  0.696  0.669  0.347-  82 2.08  50 2.14  79 2.23  98 2.33  81 2.38  63 2.42 100 2.47  20 2.53
                            69 2.67  18 2.69  68 2.81  14 3.01  30 3.09
  53  0.235  0.859  0.827-  91 2.25  31 2.29  16 2.32  19 2.37  36 2.39  96 2.41  45 2.48  51 2.50
                            59 2.50  77 2.58   1 2.77  64 2.95   5 3.15
  54  0.865  0.733  0.010-  26 2.19  23 2.21  81 2.21  96 2.27  61 2.39  20 2.51  64 2.54  58 2.55
                            21 2.65  80 2.80  47 2.89  60 2.92  40 2.96  90 3.09
  55  0.630  0.026  0.456-  11 2.18  22 2.19  30 2.20   6 2.25  98 2.37  37 2.37  92 2.39  84 2.43
                            82 2.48   5 3.01  25 3.06  10 3.15
  56  0.900  0.286  0.510-  83 2.27  41 2.29  17 2.32  73 2.34  66 2.35   7 2.46  92 2.52  68 2.53
                            11 2.60  89 2.83  27 3.04  25 3.04  69 3.11
  57  0.349  0.445  0.783-  42 2.22  78 2.27  51 2.29  29 2.31   3 2.33  94 2.39  99 2.41  33 2.47
                            75 2.48  34 2.69  46 2.82  12 2.85
  58  0.986  0.800  0.218-  49 2.07  64 2.19  60 2.27  47 2.37  81 2.39  63 2.49  88 2.54  54 2.55
                            82 2.68  27 2.83  67 2.86
  59  0.219  0.818  0.587-  31 2.21  88 2.24  70 2.28  76 2.31  53 2.50  65 2.57  33 2.58  35 2.61
                            36 2.70  22 2.72  51 2.79  91 2.83  89 3.13
  60  0.844  0.966  0.174-  27 2.09  71 2.22  20 2.27  58 2.27  82 2.40   6 2.46  64 2.54  40 2.55
                            25 2.57  23 2.84  54 2.92  74 3.04
  61  0.641  0.669  0.983-  50 2.17  80 2.18  90 2.20  20 2.31  45 2.38  54 2.39  62 2.42  94 2.60
                            78 2.76  40 3.01  81 3.08  24 3.08  21 3.14
  62  0.621  0.808  0.792-  30 2.24  21 2.25  45 2.26   5 2.34  10 2.41  61 2.42  31 2.55  40 2.56
                            78 2.57  80 2.95  23 3.08
  63  0.926  0.647  0.398-  79 2.21  81 2.30  41 2.34  52 2.42  15 2.49  58 2.49  70 2.49  76 2.51
                            38 2.53  82 2.62  68 2.64  88 3.03
  64  0.044  0.903  0.039-  58 2.19  23 2.20   1 2.25  16 2.32  96 2.43  54 2.54  60 2.54  19 2.68
                            67 2.71  49 2.85  71 2.86  53 2.95  74 3.01  36 3.10
  65  0.363  0.741  0.394-  98 2.23  76 2.28 100 2.30  18 2.32  24 2.35  93 2.37  49 2.39   9 2.46
                            33 2.57  59 2.57  22 2.60
  66  0.124  0.240  0.490-  43 2.05  89 2.16   8 2.22  17 2.30  56 2.35  28 2.35  35 2.35  42 2.67
                            73 2.73  41 2.78  15 2.99
  67  0.149  0.026  0.250-   9 2.19  43 2.28  32 2.28  88 2.31  27 2.36  74 2.41  35 2.43  49 2.54
                            16 2.67  64 2.71  58 2.86  17 2.87
  68  0.819  0.424  0.322-  14 2.19   4 2.31  81 2.37  25 2.49  17 2.50  56 2.53  69 2.53  15 2.60
                            63 2.64  92 2.67  52 2.81  41 2.95  90 2.98
  69  0.651  0.461  0.499-  92 2.15  79 2.30  99 2.31   7 2.43 100 2.47  68 2.53  18 2.56  34 2.58
                            14 2.60  52 2.67  95 2.90  56 3.11
  70  0.041  0.686  0.609-  76 2.13  72 2.21  41 2.25  59 2.28  38 2.28  63 2.49  51 2.51  21 2.68
                            96 2.72  36 2.77  79 2.84  88 2.88  33 3.06  42 3.07
  71  0.867  0.119  0.021-  74 2.12  60 2.22  13 2.27  23 2.38  86 2.42  40 2.48  97 2.57  25 2.68
                             4 2.68   1 2.73  48 2.84  64 2.86  44 2.99
  72  0.993  0.539  0.760-  70 2.21  26 2.23  42 2.27  96 2.35   7 2.35  51 2.37  41 2.38  73 2.40
                            80 2.63  21 2.71  75 2.90  44 2.99  97 3.04
  73  0.997  0.308  0.716-  42 2.04  13 2.20  12 2.26  56 2.34   7 2.36  72 2.40  41 2.57  44 2.59
                            83 2.61  97 2.62  89 2.68  66 2.73
  74  0.037  0.186  0.119-  17 2.07  71 2.12  44 2.22   4 2.36   1 2.37  67 2.41  32 2.45  39 2.60
                            27 2.86  43 2.89  64 3.01  25 3.01  60 3.04
  75  0.186  0.480  0.959-  44 2.00   3 2.31  39 2.32  51 2.37  47 2.43  94 2.45  19 2.46  57 2.48
                            26 2.50  72 2.90  42 2.95  12 3.12  96 3.14
  76  0.167  0.648  0.448-  70 2.13  33 2.24  65 2.28  59 2.31  93 2.45  49 2.47  15 2.48  63 2.51
                            41 2.52   8 2.60  88 2.61
  77  0.389  0.043  0.904-  91 2.18  87 2.21  16 2.24   5 2.29  29 2.31  32 2.48  53 2.58   3 2.79
                            45 2.81   1 2.84  12 2.97  48 3.00  85 3.07
  78  0.524  0.578  0.757-  57 2.27  31 2.37  34 2.37  80 2.45  94 2.49 100 2.56  62 2.57  99 2.66
                            33 2.68  45 2.72  61 2.76  46 2.96
  79  0.772  0.643  0.550-  63 2.21  52 2.23  69 2.30  38 2.38  21 2.41  30 2.43 100 2.48   7 2.55
                            82 2.84  70 2.84  41 2.90  80 3.10
  80  0.748  0.553  0.839-   7 2.15  61 2.18  21 2.33  90 2.40  97 2.44  78 2.45  26 2.48  72 2.63
                            54 2.80  34 2.82  62 2.95  46 3.02  79 3.10
  81  0.855  0.609  0.187-  54 2.21  63 2.30  68 2.37  52 2.38  58 2.39  90 2.40  47 2.44  26 2.48
                             4 2.64  50 2.74  20 2.79  15 2.93  61 3.08
  82  0.777  0.854  0.369-  52 2.08  38 2.17  98 2.36  60 2.40  30 2.44  20 2.47  55 2.48  27 2.55
                            63 2.62  58 2.68  11 2.69   6 2.76  79 2.84
  83  0.764  0.215  0.671-  84 2.17  10 2.24  11 2.25   7 2.26  56 2.27  48 2.30  13 2.36  34 2.36
                            92 2.54  73 2.61  97 2.79
  84  0.560  0.159  0.642-   5 2.06  29 2.16  83 2.17  34 2.22  48 2.41  55 2.43  28 2.45  92 2.46
                            10 2.56  22 2.77  99 3.06  11 3.09
  85  0.462  0.208  0.144-  32 2.17  86 2.17   2 2.35  37 2.48   3 2.53   6 2.61  87 2.65  46 2.67
                            95 2.74  14 2.76  43 2.98  77 3.07  39 3.07
  86  0.665  0.228  0.081-  25 2.14  85 2.17  46 2.26  48 2.33  71 2.42  14 2.54  90 2.61   6 2.62
                            97 2.69   4 2.69  40 2.93
  87  0.498  0.961  0.071-  40 2.15  77 2.21   6 2.21  16 2.38   9 2.46  20 2.51  45 2.53  85 2.65
                            24 2.66  32 2.93  98 3.04
  88  0.092  0.891  0.423-  35 2.23  59 2.24  67 2.31  49 2.34  27 2.40  38 2.44  58 2.54  76 2.61
                            89 2.69  70 2.88  63 3.03   9 3.13
  89  0.056  0.077  0.606-  36 2.07  66 2.16  35 2.39  11 2.48  13 2.48  91 2.51  73 2.68  88 2.69
                            12 2.77  56 2.83  38 2.98  27 3.00  59 3.13
  90  0.708  0.479  0.057-  50 2.19  61 2.20  46 2.22   4 2.27  14 2.35  80 2.40  81 2.40  97 2.43
                            86 2.61  26 2.67  68 2.98  54 3.09   2 3.13
  91  0.268  0.052  0.727-  12 2.05  77 2.18  53 2.25   5 2.41  28 2.41  89 2.51  29 2.55   1 2.60
                            35 2.66  36 2.76  59 2.83  22 2.95
  92  0.663  0.257  0.448-  69 2.15  25 2.36  55 2.39  84 2.46  14 2.50  56 2.52  83 2.54  95 2.56
                            68 2.67  11 2.89  37 2.91  34 3.08  99 3.10
  93  0.275  0.592  0.240-  49 2.12  24 2.17  47 2.21  18 2.31   2 2.35  65 2.37  76 2.45  39 2.51
                            15 2.56  19 2.73   8 2.87  94 3.07
  94  0.407  0.572  0.971-  45 2.16  57 2.39  19 2.40   2 2.44  75 2.45  78 2.49  46 2.52  61 2.60
                            24 2.63  50 2.83   3 2.87  51 2.88  93 3.07
  95  0.431  0.325  0.383-   8 2.11  99 2.12  37 2.21  18 2.26  43 2.38  28 2.42  14 2.44   2 2.49
                            92 2.56  85 2.74  69 2.90
  96  0.039  0.735  0.871-  54 2.27  51 2.30  19 2.35  72 2.35  36 2.38  53 2.41  64 2.43  26 2.44
                            21 2.46  23 2.52  70 2.72  47 3.00  75 3.14
  97  0.827  0.339  0.906-   4 2.24  44 2.39  90 2.43  80 2.44  26 2.49   7 2.53  48 2.53  71 2.57
                            13 2.61  73 2.62  86 2.69  83 2.79  46 2.92  72 3.04  34 3.07
  98  0.548  0.842  0.340-  65 2.23   6 2.30  52 2.33  82 2.36  55 2.37  20 2.38  22 2.40   9 2.45
                            24 2.46 100 2.58  30 2.79  50 2.92  37 2.98  87 3.04
  99  0.439  0.423  0.566-  33 2.07  95 2.12   8 2.19  69 2.31  34 2.31  28 2.36  57 2.41  18 2.51
                            78 2.66 100 2.74  29 2.98  84 3.06  42 3.07  92 3.10
 100  0.532  0.670  0.525-  18 2.29  65 2.30  33 2.39  30 2.45  52 2.47  69 2.47  31 2.48  79 2.48
                            78 2.56  98 2.58  99 2.74  22 3.05
 

IMPORTANT INFORMATION: All symmetrisations will be switched off!
NOSYMM: (Re-)initialisation of all symmetry stuff for point group C_1.

 
 
 KPOINTS: simple                                  

Automatic generation of k-mesh.
Space group operators:
 irot       det(A)        alpha          n_x          n_y          n_z        tau_x        tau_y        tau_z
    1     1.000000     0.000000     1.000000     0.000000     0.000000     0.000000     0.000000     0.000000
 
 Subroutine IBZKPT returns following result:
 ===========================================
 
 Found      1 irreducible k-points:
 
 Following reciprocal coordinates:
            Coordinates               Weight
  0.000000  0.000000  0.000000      1.000000
 
 Following cartesian coordinates:
            Coordinates               Weight
  0.000000  0.000000  0.000000      1.000000
 


--------------------------------------------------------------------------------------------------------




 Dimension of arrays:
   k-points           NKPTS =      1   k-points in BZ     NKDIM =      1   number of bands    NBANDS=    304
   number of dos      NEDOS =    301   number of ions     NIONS =    100
   non local maximal  LDIM  =      4   non local SUM 2l+1 LMDIM =      8
   total plane-waves  NPLWV =  64000
   max r-space proj   IRMAX =   1017   max aug-charges    IRDMAX=   2209
   dimension x,y,z NGX =    40 NGY =   40 NGZ =   40
   dimension x,y,z NGXF=    80 NGYF=   80 NGZF=   80
   support grid    NGXF=    80 NGYF=   80 NGZF=   80
   ions per type =             100
   NGX,Y,Z   is equivalent  to a cutoff of   6.51,  6.51,  6.51 a.u.
   NGXF,Y,Z  is equivalent  to a cutoff of  13.02, 13.02, 13.02 a.u.

 SYSTEM =  unknown system                          
 POSCAR =  Si                                      

 Startparameter for this run:
   NWRITE =      2    write-flag & timer
   PREC   = normal    normal or accurate (medium, high low for compatibility)
   ISTART =      0    job   : 0-new  1-cont  2-samecut
   ICHARG =      2    charge: 1-file 2-atom 10-const
   ISPIN  =      2    spin polarized calculation?
   LNONCOLLINEAR =      F non collinear calculations
   LSORBIT =      F    spin-orbit coupling
   INIWAV =      1    electr: 0-lowe 1-rand  2-diag
   LASPH  =      F    aspherical Exc in radial PAW
   METAGGA=      F    non-selfconsistent MetaGGA calc.

 Electronic Relaxation 1
   ENCUT  =  245.3 eV  18.03 Ry    4.25 a.u.  13.04 13.04 13.04*2*pi/ulx,y,z
   ENINI  =  245.3     initial cutoff
   ENAUG  =  322.1 eV  augmentation charge cutoff
   NELM   =     60;   NELMIN=  4; NELMDL=-12     # of ELM steps 
   EDIFF  = 0.1E-04   stopping-criterion for ELM
   LREAL  =      T    real-space projection
   NLSPLINE    = F    spline interpolate recip. space projectors
   LCOMPAT=      F    compatible to vasp.4.4
   GGA_COMPAT  = T    GGA compatible to vasp.4.4-vasp.4.6
   LMAXPAW     = -100 max onsite density
   LMAXMIX     =    2 max onsite mixed and CHGCAR
   VOSKOWN=      0    Vosko Wilk Nusair interpolation
   ROPT   =   -0.00050
 Ionic relaxation
   EDIFFG = 0.1E-03   stopping-criterion for IOM
   NSW    =      0    number of steps for IOM
   NBLOCK =      1;   KBLOCK =      1    inner block; outer block 
   IBRION =     -1    ionic relax: 0-MD 1-quasi-New 2-CG
   NFREE  =      0    steps in history (QN), initial steepest desc. (CG)
   ISIF   =      2    stress and relaxation
   IWAVPR =     10    prediction:  0-non 1-charg 2-wave 3-comb
   ISYM   =      0    0-nonsym 1-usesym 2-fastsym
   LCORR  =      T    Harris-Foulkes like correction to forces

   POTIM  = 0.5000    time-step for ionic-motion
   TEIN   =    0.0    initial temperature
   TEBEG  =    0.0;   TEEND  =   0.0 temperature during run
   SMASS  =  -3.00    Nose mass-parameter (am)
   estimated Nose-frequenzy (Omega)   =  0.10E-29 period in steps =****** mass=  -0.238E-26a.u.
   SCALEE = 1.0000    scale energy and forces
   NPACO  =    256;   APACO  = 16.0  distance and # of slots for P.C.
   PSTRESS=    0.0 pullay stress

  Mass of Ions in am
   POMASS =  28.09
  Ionic Valenz
   ZVAL   =   4.00
  Atomic Wigner-Seitz radii
   RWIGS  =  -1.00
  virtual crystal weights 
   VCA    =   1.00
   NELECT =     400.0000    total number of electrons
   NUPDOWN=      -1.0000    fix difference up-down

 DOS related values:
   EMIN   =  10.00;   EMAX   =-10.00  energy-range for DOS
   EFERMI =   0.00
   ISMEAR =     0;   SIGMA  =   0.05  broadening in eV -4-tet -1-fermi 0-gaus

 Electronic relaxation 2 (details)
   IALGO  =     48    algorithm
   LDIAG  =      T    sub-space diagonalisation (order eigenvalues)
   LSUBROT=      F    optimize rotation matrix (better conditioning)
   TURBO    =      0    0=normal 1=particle mesh
   IRESTART =      0    0=no restart 2=restart with 2 vectors
   NREBOOT  =      0    no. of reboots
   NMIN     =      0    reboot dimension
   EREF     =   0.00    reference energy to select bands
   IMIX   =      4    mixing-type and parameters
     AMIX     =   0.40;   BMIX     =  1.00
     AMIX_MAG =   1.60;   BMIX_MAG =  1.00
     AMIN     =   0.10
     WC   =   100.;   INIMIX=   1;  MIXPRE=   1;  MAXMIX= -45

 Intra band minimization:
   WEIMIN = 0.0000     energy-eigenvalue tresh-hold
   EBREAK =  0.82E-08  absolut break condition
   DEPER  =   0.30     relativ break condition  

   TIME   =   0.40     timestep for ELM

  volume/ion in A,a.u.               =      10.65        71.86
  Fermi-wavevector in a.u.,A,eV,Ry     =   1.181242  2.232223 18.984649  1.395332
  Thomas-Fermi vector in A             =   2.317519
 
 Write flags
   LWAVE        =      F    write WAVECAR
   LDOWNSAMPLE  =      F    k-point downsampling of WAVECAR
   LCHARG       =      F    write CHGCAR
   LVTOT        =      F    write LOCPOT, total local potential
   LVHAR        =      F    write LOCPOT, Hartree potential only
   LELF         =      F    write electronic localiz. function (ELF)
   LORBIT       =      0    0 simple, 1 ext, 2 COOP (PROOUT), +10 PAW based schemes


 Dipole corrections
   LMONO  =      F    monopole corrections only (constant potential shift)
   LDIPOL =      F    correct potential (dipole corrections)
   IDIPOL =      0    1-x, 2-y, 3-z, 4-all directions 
   EPSILON=  1.0000000 bulk dielectric constant

 Exchange correlation treatment:
   GGA     =    --    GGA type
   LEXCH   =     8    internal setting for exchange type
   VOSKOWN=      0    Vosko Wilk Nusair interpolation
   LHFCALC =     F    Hartree Fock is set to
   LHFONE  =     F    Hartree Fock one center treatment
   AEXX    =    0.0000 exact exchange contribution

 Linear response parameters
   LEPSILON=     F    determine dielectric tensor
   LRPA    =     F    only Hartree local field effects (RPA)
   LNABLA  =     F    use nabla operator in PAW spheres
   LVEL    =     F    velocity operator in full k-point grid
   LINTERFAST=   F  fast interpolation
   KINTER  =     0    interpolate to denser k-point grid
   CSHIFT  =0.1000    complex shift for real part using Kramers Kronig
   OMEGAMAX=  -1.0    maximum frequency
   DEG_THRESHOLD= 0.2000000E-02 threshold for treating states as degnerate
   RTIME   =   -0.100 relaxation time in fs
  (WPLASMAI=    0.000 imaginary part of plasma frequency in eV, 0.658/RTIME)
   DFIELD  = 0.0000000 0.0000000 0.0000000 field for delta impulse in time
 
 Orbital magnetization related:
   ORBITALMAG=     F  switch on orbital magnetization
   LCHIMAG   =     F  perturbation theory with respect to B field
   DQ        =  0.001000  dq finite difference perturbation B field
   LLRAUG    =     F  two centre corrections for induced B field



--------------------------------------------------------------------------------------------------------


 Static calculation
 charge density and potential will be updated during run
 spin polarized calculation
 RMM-DIIS sequential band-by-band
 perform sub-space diagonalisation
    before iterative eigenvector-optimisation
 modified Broyden-mixing scheme, WC =      100.0
 initial mixing is a Kerker type mixing with AMIX =  0.4000 and BMIX =      1.0000
 Hartree-type preconditioning will be used
 using additional bands          104
 real space projection scheme for non local part
 use partial core corrections
 calculate Harris-corrections to forces 
   (improved forces if not selfconsistent)
 use gradient corrections 
 use of overlap-Matrix (Vanderbilt PP)
 Gauss-broadening in eV      SIGMA  =   0.05


--------------------------------------------------------------------------------------------------------


  energy-cutoff  :      245.34
  volume of cell :     1064.80
      direct lattice vectors                 reciprocal lattice vectors
    10.211495000  0.000000000  0.000000000     0.097928854  0.000000000  0.000000000
     0.000000000 10.211495000  0.000000000     0.000000000  0.097928854  0.000000000
     0.000000000  0.000000000 10.211495000     0.000000000  0.000000000  0.097928854

  length of vectors
    10.211495000 10.211495000 10.211495000     0.097928854  0.097928854  0.097928854


 
 k-points in units of 2pi/SCALE and weight: simple                                  
   0.00000000  0.00000000  0.00000000       1.000
 
 k-points in reciprocal lattice and weights: simple                                  
   0.00000000  0.00000000  0.00000000       1.000
 
 position of ions in fractional coordinates (direct lattice) 
   0.11405100  0.07955640  0.92828600
   0.42432400  0.43410200  0.16536500
   0.32642600  0.30269400  0.96011600
   0.88855700  0.36333700  0.11508000
   0.49309400  0.98261500  0.71411600
   0.62015300  0.02921240  0.23642800
   0.80613400  0.43153600  0.67736600
   0.25614200  0.40914100  0.45384600
   0.34447800  0.93780200  0.25588300
   0.73349100  0.01102160  0.74640300
   0.82347400  0.04509730  0.54473600
   0.18401200  0.22019200  0.79763600
   0.92759400  0.12534700  0.80691000
   0.61781400  0.39986200  0.25401400
   0.06975700  0.46850700  0.31520700
   0.27030700  0.92174200  0.04258020
   0.99485200  0.25357600  0.30614600
   0.46454100  0.54211700  0.35306900
   0.22221700  0.71319500  0.00821700
   0.68115900  0.81741200  0.14988700
   0.82977800  0.74839400  0.75277300
   0.43636300  0.95325600  0.51420400
   0.87866400  0.91943100  0.90150900
   0.41480900  0.73482800  0.17041900
   0.77573400  0.19339400  0.25547400
   0.94891800  0.53861400  0.97435700
   0.93619300  0.04491690  0.33938400
   0.33792800  0.21418100  0.57094900
   0.42802100  0.23375600  0.78815500
   0.67095300  0.85610500  0.58340600
   0.39289600  0.76167400  0.70160600
   0.26950400  0.13318900  0.09554580
   0.32306300  0.58716600  0.58938400
   0.59009700  0.35852200  0.72241200
   0.24194800  0.04345200  0.46825700
   0.02930410  0.92465300  0.73702100
   0.43384800  0.10949300  0.36388600
   0.89337600  0.84198300  0.54631300
   0.20956100  0.37011900  0.15710100
   0.68743400  0.96031900  0.97913900
   0.00561304  0.48167800  0.53474800
   0.16001500  0.41825500  0.67824800
   0.23188700  0.21968700  0.32208200
   0.05465280  0.33519900  0.96182100
   0.44330600  0.77425500  0.91900700
   0.54829400  0.37012200  0.95771800
   0.08775280  0.61002000  0.13307800
   0.64732300  0.17492700  0.85993100
   0.18582400  0.77971500  0.24594200
   0.58674700  0.60852900  0.17862300
   0.20877600  0.62083800  0.77617700
   0.69580900  0.66883000  0.34713300
   0.23482300  0.85852000  0.82724200
   0.86494700  0.73294000  0.00969853
   0.62966100  0.02552610  0.45649100
   0.89979400  0.28554100  0.51046600
   0.34868300  0.44507600  0.78287000
   0.98579300  0.80034600  0.21775400
   0.21893600  0.81787000  0.58660100
   0.84432900  0.96577500  0.17394000
   0.64146300  0.66944200  0.98290400
   0.62103300  0.80845400  0.79164000
   0.92592400  0.64688500  0.39754400
   0.04389380  0.90302700  0.03904900
   0.36269600  0.74138500  0.39407900
   0.12405600  0.24032400  0.49030600
   0.14890100  0.02554310  0.24994000
   0.81943300  0.42408700  0.32169800
   0.65100600  0.46077200  0.49942200
   0.04069660  0.68592300  0.60923700
   0.86697700  0.11894400  0.02117060
   0.99267800  0.53873400  0.76033700
   0.99748200  0.30811500  0.71628400
   0.03704510  0.18645800  0.11929000
   0.18620800  0.47970900  0.95949500
   0.16681800  0.64763200  0.44775100
   0.38891000  0.04317980  0.90364200
   0.52405700  0.57846200  0.75727200
   0.77230400  0.64318500  0.54986400
   0.74809700  0.55342900  0.83856700
   0.85470400  0.60940200  0.18716900
   0.77748700  0.85378900  0.36902300
   0.76355900  0.21454400  0.67144300
   0.56020500  0.15866400  0.64169100
   0.46250000  0.20797000  0.14361500
   0.66480000  0.22808300  0.08073680
   0.49805300  0.96134000  0.07128790
   0.09231330  0.89120400  0.42335600
   0.05601020  0.07725470  0.60611500
   0.70779800  0.47887700  0.05739000
   0.26799800  0.05184380  0.72740500
   0.66331900  0.25697600  0.44760100
   0.27481400  0.59179300  0.24041000
   0.40691400  0.57200800  0.97055400
   0.43060600  0.32498500  0.38282900
   0.03912180  0.73463000  0.87119900
   0.82748200  0.33882100  0.90599200
   0.54820100  0.84219100  0.33957500
   0.43869000  0.42252500  0.56634600
   0.53180900  0.67024700  0.52461800
 
 position of ions in cartesian coordinates  (Angst):
   1.16463122  0.81238978  9.47918785
   4.33298240  4.43283040  1.68862387
   3.33329747  3.09095827  9.80421973
   9.07349536  3.71021396  1.17513884
   5.03522692 10.03396816  7.29219196
   6.33268926  0.29830228  2.41428334
   8.23183331  4.40662771  6.91691952
   2.61559275  4.17794128  4.63444616
   3.51763537  9.57636043  2.61294798
   7.49003968  0.11254701  7.62189050
   8.40890063  0.46051085  5.56256894
   1.87903762  2.24848951  8.14505603
   9.47212149  1.27998026  8.23975743
   6.30880457  4.08318881  2.59386269
   0.71232326  4.78415689  3.21873470
   2.76023858  9.41236382  0.43480750
  10.15892622  2.58939006  3.12620835
   4.74365810  5.53582503  3.60536233
   2.26916778  7.28278718  0.08390785
   6.95565172  8.34699855  1.53057035
   8.47327390  7.64222159  7.68693773
   4.45591859  9.73416888  5.25079157
   8.97247304  9.38876506  9.20575465
   4.23582003  7.50369245  1.74023277
   7.92140386  1.97484186  2.60877147
   9.68987141  5.50005417  9.94964163
   9.55993014  0.45866870  3.46561802
   3.45075008  2.18710821  5.83024286
   4.37073430  2.38699823  8.04824084
   6.85143320  8.74211193  5.95744745
   4.01205554  7.77783024  7.16444616
   2.75203875  1.36005881  0.97566546
   3.29895621  5.99584267  6.01849177
   6.02577257  3.66104561  7.37690653
   2.47065079  0.44370988  4.78160401
   0.29923867  9.44208949  7.52608626
   4.43023668  1.11808722  3.71582007
   9.12270456  8.59790519  5.57867247
   2.13993110  3.77946832  1.60423608
   7.01972885  9.80629267  9.99847300
   0.05731753  4.91865249  5.46057653
   1.63399237  4.27100884  6.92592606
   2.36791294  2.24333270  3.28893873
   0.55808679  3.42288291  9.82163033
   4.52681700  7.90630106  9.38443539
   5.59890144  3.77949895  9.77973257
   0.89608728  6.22921618  1.35892533
   6.61013558  1.78626619  8.78118111
   1.89754085  7.96205582  2.51143550
   5.99156406  6.21399084  1.82400787
   2.13191508  6.33968413  7.92592755
   7.10525012  6.82975420  3.54474689
   2.39789389  8.76677269  8.44737755
   8.83240197  7.48441315  0.09903649
   6.42978015  0.26065964  4.66145556
   9.18824193  2.91580049  5.21262101
   3.56057471  4.54489135  7.99427309
  10.06642029  8.17272918  2.22359388
   2.23566387  8.35167542  5.99007318
   8.62186136  9.86200658  1.77618744
   6.55029622  6.83600364 10.03691928
   6.34167537  8.25552398  8.08382790
   9.45506830  6.60566294  4.05951857
   0.44822132  9.22125570  0.39874867
   3.70366839  7.57064922  4.02413574
   1.26679722  2.45406732  5.00675727
   1.52050182  0.26083324  2.55226106
   8.36763598  4.33056228  3.28501752
   6.64774451  4.70517097  5.09984526
   0.41557313  7.00429928  6.22122058
   8.85313130  1.21459606  0.21618348
  10.13672643  5.50127955  7.76417747
  10.18578246  3.14631478  7.31433048
   0.37828585  1.90401493  1.21812924
   1.90146206  4.89854605  9.79787840
   1.70346117  6.61329093  4.57220710
   3.97135252  0.44093031  9.22753576
   5.35140544  5.90696182  7.73287924
   7.88637843  6.56788041  5.61493349
   7.63918878  5.65133747  8.56302273
   8.72780562  6.22290548  1.91127531
   7.93930461  8.71846210  3.76827652
   7.79707891  2.19081498  6.85643684
   5.72053056  1.62019664  6.55262444
   4.72281644  2.12368462  1.46652385
   6.78860188  2.32906841  0.82444343
   5.08586572  9.81671860  0.72795603
   0.94265680  9.10052519  4.32309768
   0.57194788  0.78888598  6.18934029
   7.22767574  4.89005009  0.58603770
   2.73666024  0.52940270  7.42789252
   6.77347865  2.62410914  4.57067537
   2.80626179  6.04309126  2.45494551
   4.15520028  5.84105683  9.91080732
   4.39713102  3.31858270  3.90925642
   0.39949207  7.50167057  8.89624423
   8.44982831  3.45986895  9.25153278
   5.59795177  8.60002919  3.46756841
   4.47968074  4.31461192  5.78323935
   5.43056494  6.84422389  5.35713408
 


--------------------------------------------------------------------------------------------------------


 k-point  1 :   0.0000 0.0000 0.0000  plane waves:    9315

 maximum and minimum number of plane-waves per node :      9315     9315

 maximum number of plane-waves:      9315
 maximum index in each direction: 
   IXMAX=   13   IYMAX=   13   IZMAX=   13
   IXMIN=  -13   IYMIN=  -13   IZMIN=  -13


 serial   3D FFT for wavefunctions
 parallel 3D FFT for charge:
    minimum data exchange during FFTs selected (reduces bandwidth)


 total amount of memory used by VASP MPI-rank0    53946. kBytes
=======================================================================

   base      :      30000. kBytes
   nonlr-proj:       8278. kBytes
   fftplans  :       1377. kBytes
   grid      :       7520. kBytes
   one-center:        614. kBytes
   wavefun   :       6157. kBytes
 
     INWAV:  cpu time    0.0000: real time    0.0001
 Broyden mixing: mesh for mixing (old mesh)
   NGX = 27   NGY = 27   NGZ = 27
  (NGX  = 80   NGY  = 80   NGZ  = 80)
  gives a total of  19683 points

 initial charge density was supplied:
 charge density of overlapping atoms calculated
 number of electron     400.0000000 magnetization     100.0000000
 keeping initial charge density in first step


--------------------------------------------------------------------------------------------------------


 Maximum index for non-local projection operator          951
 Maximum index for augmentation-charges          192 (set IRDMAX)


--------------------------------------------------------------------------------------------------------


 First call to EWALD:  gamma=   0.174
 Maximum number of real-space cells 3x 3x 3
 Maximum number of reciprocal cells 3x 3x 3

    FEWALD:  cpu time    0.0073: real time    0.0073


--------------------------------------- Iteration      1(   1)  ---------------------------------------


    POTLOK:  cpu time    0.0551: real time    0.1367
    SETDIJ:  cpu time    0.0348: real time    0.0349
    EDDIAG:  cpu time    0.3470: real time    0.3491
  RMM-DIIS:  cpu time    0.4360: real time    0.4409
    ORTHCH:  cpu time    0.0974: real time    0.0981
       DOS:  cpu time    0.0004: real time    0.0004
    --------------------------------------------
      LOOP:  cpu time    0.9707: real time    1.0602

 eigenvalue-minimisations  :   608
 total energy-change (2. order) : 0.1396917E+04  (-0.7486586E+04)
 number of electron     400.0000000 magnetization     100.0000000
 augmentation part      400.0000000 magnetization     100.0000000

 Free energy of the ion-electron system (eV)
  ---------------------------------------------------
  alpha Z        PSCENC =       316.14514549
  Ewald energy   TEWEN  =    -14892.83741627
  -Hartree energ DENC   =       -99.94748387
  -exchange      EXHF   =         0.00000000
  -V(xc)+E(xc)   XCENC  =      -777.11693130
  PAW double counting   =      8803.41707833    -7043.47671478
  entropy T*S    EENTRO =        -0.00753661
  eigenvalues    EBANDS =      4784.61201330
  atomic energy  EATOM  =     10306.12861560
  Solvation  Ediel_sol  =         0.00000000
  ---------------------------------------------------
  free energy    TOTEN  =      1396.91676989 eV

  energy without entropy =     1396.92430651  energy(sigma->0) =     1396.92053820


--------------------------------------------------------------------------------------------------------




--------------------------------------- Iteration      1(   2)  ---------------------------------------


    EDDIAG:  cpu time    0.3398: real time    0.3420
  RMM-DIIS:  cpu time    0.4385: real time    0.4437
    ORTHCH:  cpu time    0.0971: real time    0.0978
       DOS:  cpu time    0.0003: real time    0.0003
    --------------------------------------------
      LOOP:  cpu time    0.8757: real time    0.8838

 eigenvalue-minimisations  :   608
 total energy-change (2. order) :-0.1377909E+04  (-0.1325170E+04)
 number of electron     400.0000000 magnetization     100.0000000
 augmentation part      400.0000000 magnetization     100.0000000

 Free energy of the ion-electron system (eV)
  ---------------------------------------------------
  alpha Z        PSCENC =       316.14514549
  Ewald energy   TEWEN  =    -14892.83741627
  -Hartree energ DENC   =       -99.94748387
  -exchange      EXHF   =         0.00000000
  -V(xc)+E(xc)   XCENC  =      -777.11693130
  PAW double counting   =      8803.41707833    -7043.47671478
  entropy T*S    EENTRO =        -0.04872331
  eigenvalues    EBANDS =      3406.74466219
  atomic energy  EATOM  =     10306.12861560
  Solvation  Ediel_sol  =         0.00000000
  ---------------------------------------------------
  free energy    TOTEN  =        19.00823209 eV

  energy without entropy =       19.05695539  energy(sigma->0) =       19.03259374


--------------------------------------------------------------------------------------------------------




--------------------------------------- Iteration      1(   3)  ---------------------------------------


    EDDIAG:  cpu time    0.3380: real time    0.3402
  RMM-DIIS:  cpu time    0.4397: real time    0.4448
    ORTHCH:  cpu time    0.0975: real time    0.0982
       DOS:  cpu time    0.0003: real time    0.0003
    --------------------------------------------
      LOOP:  cpu time    0.8756: real time    0.8836

 eigenvalue-minimisations  :   608
 total energy-change (2. order) :-0.2905067E+03  (-0.2826016E+03)
 number of electron     400.0000000 magnetization     100.0000000
 augmentation part      400.0000000 magnetization     100.0000000

 Free energy of the ion-electron system (eV)
  ---------------------------------------------------
  alpha Z        PSCENC =       316.14514549
  Ewald energy   TEWEN  =    -14892.83741627
  -Hartree energ DENC   =       -99.94748387
  -exchange      EXHF   =         0.00000000
  -V(xc)+E(xc)   XCENC  =      -777.11693130
  PAW double counting   =      8803.41707833    -7043.47671478
  entropy T*S    EENTRO =        -0.00769047
  eigenvalues    EBANDS =      3116.19696643
  atomic energy  EATOM  =     10306.12861560
  Solvation  Ediel_sol  =         0.00000000
  ---------------------------------------------------
  free energy    TOTEN  =      -271.49843084 eV

  energy without entropy =     -271.49074037  energy(sigma->0) =     -271.49458561


--------------------------------------------------------------------------------------------------------




--------------------------------------- Iteration      1(   4)  ---------------------------------------


    EDDIAG:  cpu time    0.3377: real time    0.3398
  RMM-DIIS:  cpu time    0.4408: real time    0.4459
    ORTHCH:  cpu time    0.0976: real time    0.0982
       DOS:  cpu time    0.0003: real time    0.0003
    --------------------------------------------
      LOOP:  cpu time    0.8764: real time    0.8843

 eigenvalue-minimisations  :   608
 total energy-change (2. order) :-0.8075332E+02  (-0.6755235E+02)
 number of electron     400.0000000 magnetization     100.0000000
 augmentation part      400.0000000 magnetization     100.0000000

 Free energy of the ion-electron system (eV)
  ---------------------------------------------------
  alpha Z        PSCENC =       316.14514549
  Ewald energy   TEWEN  =    -14892.83741627
  -Hartree energ DENC   =       -99.94748387
  -exchange      EXHF   =         0.00000000
  -V(xc)+E(xc)   XCENC  =      -777.11693130
  PAW double counting   =      8803.41707833    -7043.47671478
  entropy T*S    EENTRO =        -0.04091585
  eigenvalues    EBANDS =      3035.47686949
  atomic energy  EATOM  =     10306.12861560
  Solvation  Ediel_sol  =         0.00000000
  ---------------------------------------------------
  free energy    TOTEN  =      -352.25175316 eV

  energy without entropy =     -352.21083731  energy(sigma->0) =     -352.23129523


--------------------------------------------------------------------------------------------------------




--------------------------------------- Iteration      1(   5)  ---------------------------------------


    EDDIAG:  cpu time    0.3374: real time    0.3396
  RMM-DIIS:  cpu time    0.4389: real time    0.4440
    ORTHCH:  cpu time    0.0975: real time    0.0981
       DOS:  cpu time    0.0004: real time    0.0004
    --------------------------------------------
      LOOP:  cpu time    0.8741: real time    0.8820

 eigenvalue-minimisations  :   608
 total energy-change (2. order) :-0.2596275E+02  (-0.2118836E+02)
 number of electron     400.0000000 magnetization     100.0000000
 augmentation part      400.0000000 magnetization     100.0000000

 Free energy of the ion-electron system (eV)
  ---------------------------------------------------
  alpha Z        PSCENC =       316.14514549
  Ewald energy   TEWEN  =    -14892.83741627
  -Hartree energ DENC   =       -99.94748387
  -exchange      EXHF   =         0.00000000
  -V(xc)+E(xc)   XCENC  =      -777.11693130
  PAW double counting   =      8803.41707833    -7043.47671478
  entropy T*S    EENTRO =        -0.04743946
  eigenvalues    EBANDS =      3009.52064086
  atomic energy  EATOM  =     10306.12861560
  Solvation  Ediel_sol  =         0.00000000
  ---------------------------------------------------
  free energy    TOTEN  =      -378.21450540 eV

  energy without entropy =     -378.16706594  energy(sigma->0) =     -378.19078567


--------------------------------------------------------------------------------------------------------




--------------------------------------- Iteration      1(   6)  ---------------------------------------


    EDDIAG:  cpu time    0.3377: real time    0.3398
  RMM-DIIS:  cpu time    0.4409: real time    0.4460
    ORTHCH:  cpu time    0.0973: real time    0.0979
       DOS:  cpu time    0.0003: real time    0.0003
    --------------------------------------------
      LOOP:  cpu time    0.8763: real time    0.8841

 eigenvalue-minimisations  :   608
 total energy-change (2. order) :-0.9483529E+01  (-0.7323248E+01)
 number of electron     400.0000000 magnetization     100.0000000
 augmentation part      400.0000000 magnetization     100.0000000

 Free energy of the ion-electron system (eV)
  ---------------------------------------------------
  alpha Z        PSCENC =       316.14514549
  Ewald energy   TEWEN  =    -14892.83741627
  -Hartree energ DENC   =       -99.94748387
  -exchange      EXHF   =         0.00000000
  -V(xc)+E(xc)   XCENC  =      -777.11693130
  PAW double counting   =      8803.41707833    -7043.47671478
  entropy T*S    EENTRO =        -0.05111678
  eigenvalues    EBANDS =      3000.04078963
  atomic energy  EATOM  =     10306.12861560
  Solvation  Ediel_sol  =         0.00000000
  ---------------------------------------------------
  free energy    TOTEN  =      -387.69803394 eV

  energy without entropy =     -387.64691717  energy(sigma->0) =     -387.67247555


--------------------------------------------------------------------------------------------------------




--------------------------------------- Iteration      1(   7)  ---------------------------------------


    EDDIAG:  cpu time    0.3369: real time    0.3392
  RMM-DIIS:  cpu time    0.4388: real time    0.4439
    ORTHCH:  cpu time    0.0972: real time    0.0979
       DOS:  cpu time    0.0003: real time    0.0003
    --------------------------------------------
      LOOP:  cpu time    0.8733: real time    0.8813

 eigenvalue-minimisations  :   608
 total energy-change (2. order) :-0.3500953E+01  (-0.2874034E+01)
 number of electron     400.0000000 magnetization     100.0000000
 augmentation part      400.0000000 magnetization     100.0000000

 Free energy of the ion-electron system (eV)
  ---------------------------------------------------
  alpha Z        PSCENC =       316.14514549
  Ewald energy   TEWEN  =    -14892.83741627
  -Hartree energ DENC   =       -99.94748387
  -exchange      EXHF   =         0.00000000
  -V(xc)+E(xc)   XCENC  =      -777.11693130
  PAW double counting   =      8803.41707833    -7043.47671478
  entropy T*S    EENTRO =        -0.04615177
  eigenvalues    EBANDS =      2996.53487163
  atomic energy  EATOM  =     10306.12861560
  Solvation  Ediel_sol  =         0.00000000
  ---------------------------------------------------
  free energy    TOTEN  =      -391.19898694 eV

  energy without entropy =     -391.15283517  energy(sigma->0) =     -391.17591105


--------------------------------------------------------------------------------------------------------




--------------------------------------- Iteration      1(   8)  ---------------------------------------


    EDDIAG:  cpu time    0.3372: real time    0.3394
  RMM-DIIS:  cpu time    0.4448: real time    0.4499
    ORTHCH:  cpu time    0.0968: real time    0.0975
       DOS:  cpu time    0.0003: real time    0.0003
    --------------------------------------------
      LOOP:  cpu time    0.8792: real time    0.8871

 eigenvalue-minimisations  :   608
 total energy-change (2. order) :-0.1404049E+01  (-0.1148459E+01)
 number of electron     400.0000000 magnetization     100.0000000
 augmentation part      400.0000000 magnetization     100.0000000

 Free energy of the ion-electron system (eV)
  ---------------------------------------------------
  alpha Z        PSCENC =       316.14514549
  Ewald energy   TEWEN  =    -14892.83741627
  -Hartree energ DENC   =       -99.94748387
  -exchange      EXHF   =         0.00000000
  -V(xc)+E(xc)   XCENC  =      -777.11693130
  PAW double counting   =      8803.41707833    -7043.47671478
  entropy T*S    EENTRO =        -0.05277313
  eigenvalues    EBANDS =      2995.13744379
  atomic energy  EATOM  =     10306.12861560
  Solvation  Ediel_sol  =         0.00000000
  ---------------------------------------------------
  free energy    TOTEN  =      -392.60303614 eV

  energy without entropy =     -392.55026301  energy(sigma->0) =     -392.57664958


--------------------------------------------------------------------------------------------------------




--------------------------------------- Iteration      1(   9)  ---------------------------------------


    EDDIAG:  cpu time    0.3366: real time    0.3389
  RMM-DIIS:  cpu time    0.9939: real time    1.0064
    ORTHCH:  cpu time    0.0976: real time    0.0982
       DOS:  cpu time    0.0003: real time    0.0003
    --------------------------------------------
      LOOP:  cpu time    1.4284: real time    1.4439

 eigenvalue-minimisations  :  1512
 total energy-change (2. order) :-0.8130127E+00  (-0.7425197E+00)
 number of electron     400.0000000 magnetization     100.0000000
 augmentation part      400.0000000 magnetization     100.0000000

 Free energy of the ion-electron system (eV)
  ---------------------------------------------------
  alpha Z        PSCENC =       316.14514549
  Ewald energy   TEWEN  =    -14892.83741627
  -Hartree energ DENC   =       -99.94748387
  -exchange      EXHF   =         0.00000000
  -V(xc)+E(xc)   XCENC  =      -777.11693130
  PAW double counting   =      8803.41707833    -7043.47671478
  entropy T*S    EENTRO =        -0.04812756
  eigenvalues    EBANDS =      2994.31978548
  atomic energy  EATOM  =     10306.12861560
  Solvation  Ediel_sol  =         0.00000000
  ---------------------------------------------------
  free energy    TOTEN  =      -393.41604888 eV

  energy without entropy =     -393.36792132  energy(sigma->0) =     -393.39198510


--------------------------------------------------------------------------------------------------------




--------------------------------------- Iteration      1(  10)  ---------------------------------------


    EDDIAG:  cpu time    0.3367: real time    0.3389
  RMM-DIIS:  cpu time    0.9650: real time    0.9773
    ORTHCH:  cpu time    0.0974: real time    0.0981
       DOS:  cpu time    0.0004: real time    0.0004
    --------------------------------------------
      LOOP:  cpu time    1.3994: real time    1.4146

 eigenvalue-minimisations  :  1476
 total energy-change (2. order) :-0.8904006E-01  (-0.4768777E-01)
 number of electron     400.0000000 magnetization     100.0000000
 augmentation part      400.0000000 magnetization     100.0000000

 Free energy of the ion-electron system (eV)
  ---------------------------------------------------
  alpha Z        PSCENC =       316.14514549
  Ewald energy   TEWEN  =    -14892.83741627
  -Hartree energ DENC   =       -99.94748387
  -exchange      EXHF   =         0.00000000
  -V(xc)+E(xc)   XCENC  =      -777.11693130
  PAW double counting   =      8803.41707833    -7043.47671478
  entropy T*S    EENTRO =        -0.04851159
  eigenvalues    EBANDS =      2994.23112946
  atomic energy  EATOM  =     10306.12861560
  Solvation  Ediel_sol  =         0.00000000
  ---------------------------------------------------
  free energy    TOTEN  =      -393.50508894 eV

  energy without entropy =     -393.45657734  energy(sigma->0) =     -393.48083314


--------------------------------------------------------------------------------------------------------




--------------------------------------- Iteration      1(  11)  ---------------------------------------


    EDDIAG:  cpu time    0.3374: real time    0.3396
  RMM-DIIS:  cpu time    0.9086: real time    0.9200
    ORTHCH:  cpu time    0.0976: real time    0.0982
       DOS:  cpu time    0.0003: real time    0.0003
    --------------------------------------------
      LOOP:  cpu time    1.3440: real time    1.3581

 eigenvalue-minimisations  :  1371
 total energy-change (2. order) :-0.1924049E-02  (-0.1353314E-02)
 number of electron     400.0000000 magnetization     100.0000000
 augmentation part      400.0000000 magnetization     100.0000000

 Free energy of the ion-electron system (eV)
  ---------------------------------------------------
  alpha Z        PSCENC =       316.14514549
  Ewald energy   TEWEN  =    -14892.83741627
  -Hartree energ DENC   =       -99.94748387
  -exchange      EXHF   =         0.00000000
  -V(xc)+E(xc)   XCENC  =      -777.11693130
  PAW double counting   =      8803.41707833    -7043.47671478
  entropy T*S    EENTRO =        -0.04853138
  eigenvalues    EBANDS =      2994.22922519
  atomic energy  EATOM  =     10306.12861560
  Solvation  Ediel_sol  =         0.00000000
  ---------------------------------------------------
  free energy    TOTEN  =      -393.50701298 eV

  energy without entropy =     -393.45848160  energy(sigma->0) =     -393.48274729


--------------------------------------------------------------------------------------------------------




--------------------------------------- Iteration      1(  12)  ---------------------------------------


    EDDIAG:  cpu time    0.3373: real time    0.3396
  RMM-DIIS:  cpu time    0.7724: real time    0.7822
    ORTHCH:  cpu time    0.0976: real time    0.0982
       DOS:  cpu time    0.0003: real time    0.0003
    CHARGE:  cpu time    0.0443: real time    0.0445
    MIXING:  cpu time    0.0010: real time    0.0010
    --------------------------------------------
      LOOP:  cpu time    1.2530: real time    1.2659

 eigenvalue-minimisations  :  1083
 total energy-change (2. order) :-0.1418952E-04  (-0.1438549E-04)
 number of electron     399.9999918 magnetization      67.2767787
 augmentation part      -23.6292492 magnetization      40.9921268

 Broyden mixing:
  rms(total) = 0.63022E+01    rms(broyden)= 0.63021E+01
  rms(prec ) = 0.65005E+01
  weight for this iteration     100.00

 Free energy of the ion-electron system (eV)
  ---------------------------------------------------
  alpha Z        PSCENC =       316.14514549
  Ewald energy   TEWEN  =    -14892.83741627
  -Hartree energ DENC   =       -99.94748387
  -exchange      EXHF   =         0.00000000
  -V(xc)+E(xc)   XCENC  =      -777.11693130
  PAW double counting   =      8803.41707833    -7043.47671478
  entropy T*S    EENTRO =        -0.04853140
  eigenvalues    EBANDS =      2994.22921102
  atomic energy  EATOM  =     10306.12861560
  Solvation  Ediel_sol  =         0.00000000
  ---------------------------------------------------
  free energy    TOTEN  =      -393.50702717 eV

  energy without entropy =     -393.45849578  energy(sigma->0) =     -393.48276148


--------------------------------------------------------------------------------------------------------




--------------------------------------- Iteration      1(  13)  ---------------------------------------


    POTLOK:  cpu time    0.0525: real time    0.0529
    SETDIJ:  cpu time    0.0350: real time    0.0351
    EDDIAG:  cpu time    0.3358: real time    0.3379
  RMM-DIIS:  cpu time    0.8900: real time    0.9011
    ORTHCH:  cpu time    0.0983: real time    0.0989
       DOS:  cpu time    0.0004: real time    0.0004
    CHARGE:  cpu time    0.0452: real time    0.0454
    MIXING:  cpu time    0.0012: real time    0.0012
    --------------------------------------------
      LOOP:  cpu time    1.4584: real time    1.4730

 eigenvalue-minimisations  :  1330
 total energy-change (2. order) :-0.4636791E+01  (-0.1376272E+01)
 number of electron     399.9999919 magnetization      31.0460464
 augmentation part      -23.6423804 magnetization      11.8753907

 Broyden mixing:
  rms(total) = 0.38031E+01    rms(broyden)= 0.38031E+01
  rms(prec ) = 0.38767E+01
  weight for this iteration     100.00

 eigenvalues of (default mixing * dielectric matrix)
  average eigenvalue GAMMA=   1.2622
  1.2622

 Free energy of the ion-electron system (eV)
  ---------------------------------------------------
  alpha Z        PSCENC =       316.14514549
  Ewald energy   TEWEN  =    -14892.83741627
  -Hartree energ DENC   =      -124.44064419
  -exchange      EXHF   =         0.00000000
  -V(xc)+E(xc)   XCENC  =      -776.11788552
  PAW double counting   =     31639.89757225   -29886.76355669
  entropy T*S    EENTRO =        -0.04818413
  eigenvalues    EBANDS =      3019.89253542
  atomic energy  EATOM  =     10306.12861560
  Solvation  Ediel_sol  =         0.00000000
  ---------------------------------------------------
  free energy    TOTEN  =      -398.14381803 eV

  energy without entropy =     -398.09563390  energy(sigma->0) =     -398.11972597


--------------------------------------------------------------------------------------------------------




--------------------------------------- Iteration      1(  14)  ---------------------------------------


    POTLOK:  cpu time    0.0523: real time    0.0527
    SETDIJ:  cpu time    0.0350: real time    0.0351
    EDDIAG:  cpu time    0.3355: real time    0.3376
  RMM-DIIS:  cpu time    0.9031: real time    0.9140
    ORTHCH:  cpu time    0.0990: real time    0.0997
       DOS:  cpu time    0.0004: real time    0.0004
    CHARGE:  cpu time    0.0449: real time    0.0452
    MIXING:  cpu time    0.0013: real time    0.0013
    --------------------------------------------
      LOOP:  cpu time    1.4717: real time    1.4860

 eigenvalue-minimisations  :  1341
 total energy-change (2. order) :-0.7523345E+01  (-0.5984625E+00)
 number of electron     399.9999920 magnetization      13.9718645
 augmentation part      -23.7147386 magnetization       5.2122788

 Broyden mixing:
  rms(total) = 0.17563E+01    rms(broyden)= 0.17563E+01
  rms(prec ) = 0.18900E+01
  weight for this iteration     100.00

 eigenvalues of (default mixing * dielectric matrix)
  average eigenvalue GAMMA=   1.4811
  2.3781  0.5842

 Free energy of the ion-electron system (eV)
  ---------------------------------------------------
  alpha Z        PSCENC =       316.14514549
  Ewald energy   TEWEN  =    -14892.83741627
  -Hartree energ DENC   =      -137.94431094
  -exchange      EXHF   =         0.00000000
  -V(xc)+E(xc)   XCENC  =      -770.97472919
  PAW double counting   =     71328.65530293   -69581.67249053
  entropy T*S    EENTRO =        -0.06120552
  eigenvalues    EBANDS =      3026.89392586
  atomic energy  EATOM  =     10306.12861560
  Solvation  Ediel_sol  =         0.00000000
  ---------------------------------------------------
  free energy    TOTEN  =      -405.66716256 eV

  energy without entropy =     -405.60595705  energy(sigma->0) =     -405.63655981


--------------------------------------------------------------------------------------------------------




--------------------------------------- Iteration      1(  15)  ---------------------------------------


    POTLOK:  cpu time    0.0524: real time    0.0527
    SETDIJ:  cpu time    0.0350: real time    0.0351
    EDDIAG:  cpu time    0.3355: real time    0.3375
  RMM-DIIS:  cpu time    0.9207: real time    0.9321
    ORTHCH:  cpu time    0.0989: real time    0.0995
       DOS:  cpu time    0.0003: real time    0.0003
    CHARGE:  cpu time    0.0438: real time    0.0440
    MIXING:  cpu time    0.0014: real time    0.0014
    --------------------------------------------
      LOOP:  cpu time    1.4880: real time    1.5027

 eigenvalue-minimisations  :  1396
 total energy-change (2. order) :-0.7751907E+00  (-0.9524850E-01)
 number of electron     399.9999920 magnetization       9.8539522
 augmentation part      -23.7513456 magnetization       4.7558319

 Broyden mixing:
  rms(total) = 0.36634E+00    rms(broyden)= 0.36633E+00
  rms(prec ) = 0.43396E+00
  weight for this iteration     100.00

 eigenvalues of (default mixing * dielectric matrix)
  average eigenvalue GAMMA=   1.3063
  2.3943  0.9245  0.6000

 Free energy of the ion-electron system (eV)
  ---------------------------------------------------
  alpha Z        PSCENC =       316.14514549
  Ewald energy   TEWEN  =    -14892.83741627
  -Hartree energ DENC   =      -144.88038894
  -exchange      EXHF   =         0.00000000
  -V(xc)+E(xc)   XCENC  =      -768.38984561
  PAW double counting   =     90723.66743792   -88979.82602707
  entropy T*S    EENTRO =        -0.05818440
  eigenvalues    EBANDS =      3033.60831005
  atomic energy  EATOM  =     10306.12861560
  Solvation  Ediel_sol  =         0.00000000
  ---------------------------------------------------
  free energy    TOTEN  =      -406.44235323 eV

  energy without entropy =     -406.38416883  energy(sigma->0) =     -406.41326103


--------------------------------------------------------------------------------------------------------




--------------------------------------- Iteration      1(  16)  ---------------------------------------


    POTLOK:  cpu time    0.0524: real time    0.0528
    SETDIJ:  cpu time    0.0350: real time    0.0351
    EDDIAG:  cpu time    0.3358: real time    0.3379
  RMM-DIIS:  cpu time    0.9236: real time    0.9348
    ORTHCH:  cpu time    0.0996: real time    0.1002
       DOS:  cpu time    0.0004: real time    0.0004
    CHARGE:  cpu time    0.0443: real time    0.0445
    MIXING:  cpu time    0.0015: real time    0.0015
    --------------------------------------------
      LOOP:  cpu time    1.4924: real time    1.5070

 eigenvalue-minimisations  :  1402
 total energy-change (2. order) :-0.1540940E+00  (-0.3525627E-01)
 number of electron     399.9999919 magnetization       6.2000755
 augmentation part      -23.7677502 magnetization       2.4431425

 Broyden mixing:
  rms(total) = 0.23885E+00    rms(broyden)= 0.23885E+00
  rms(prec ) = 0.26499E+00
  weight for this iteration     100.00

 eigenvalues of (default mixing * dielectric matrix)
  average eigenvalue GAMMA=   1.3710
  2.3694  1.7069  0.7919  0.6158

 Free energy of the ion-electron system (eV)
  ---------------------------------------------------
  alpha Z        PSCENC =       316.14514549
  Ewald energy   TEWEN  =    -14892.83741627
  -Hartree energ DENC   =      -144.25408124
  -exchange      EXHF   =         0.00000000
  -V(xc)+E(xc)   XCENC  =      -768.16973827
  PAW double counting   =     91292.26817499   -89548.65167837
  entropy T*S    EENTRO =        -0.05954272
  eigenvalues    EBANDS =      3032.83407359
  atomic energy  EATOM  =     10306.12861560
  Solvation  Ediel_sol  =         0.00000000
  ---------------------------------------------------
  free energy    TOTEN  =      -406.59644721 eV

  energy without entropy =     -406.53690449  energy(sigma->0) =     -406.56667585


--------------------------------------------------------------------------------------------------------




--------------------------------------- Iteration      1(  17)  ---------------------------------------


    POTLOK:  cpu time    0.0524: real time    0.0527
    SETDIJ:  cpu time    0.0350: real time    0.0351
    EDDIAG:  cpu time    0.3359: real time    0.3380
  RMM-DIIS:  cpu time    0.9316: real time    0.9432
    ORTHCH:  cpu time    0.0992: real time    0.0998
       DOS:  cpu time    0.0004: real time    0.0004
    CHARGE:  cpu time    0.0438: real time    0.0440
    MIXING:  cpu time    0.0016: real time    0.0016
    --------------------------------------------
      LOOP:  cpu time    1.4999: real time    1.5149

 eigenvalue-minimisations  :  1421
 total energy-change (2. order) :-0.9944566E-01  (-0.1097281E-01)
 number of electron     399.9999919 magnetization       3.4772012
 augmentation part      -23.7796198 magnetization       0.7779457

 Broyden mixing:
  rms(total) = 0.13623E+00    rms(broyden)= 0.13623E+00
  rms(prec ) = 0.15874E+00
  weight for this iteration     100.00

 eigenvalues of (default mixing * dielectric matrix)
  average eigenvalue GAMMA=   1.4085
  2.4234  2.3158  0.9258  0.6115  0.7659

 Free energy of the ion-electron system (eV)
  ---------------------------------------------------
  alpha Z        PSCENC =       316.14514549
  Ewald energy   TEWEN  =    -14892.83741627
  -Hartree energ DENC   =      -143.36276496
  -exchange      EXHF   =         0.00000000
  -V(xc)+E(xc)   XCENC  =      -768.03756202
  PAW double counting   =     90770.98652663   -89027.48336941
  entropy T*S    EENTRO =        -0.05685962
  eigenvalues    EBANDS =      3031.82179170
  atomic energy  EATOM  =     10306.12861560
  Solvation  Ediel_sol  =         0.00000000
  ---------------------------------------------------
  free energy    TOTEN  =      -406.69589286 eV

  energy without entropy =     -406.63903324  energy(sigma->0) =     -406.66746305


--------------------------------------------------------------------------------------------------------




--------------------------------------- Iteration      1(  18)  ---------------------------------------


    POTLOK:  cpu time    0.0524: real time    0.0528
    SETDIJ:  cpu time    0.0350: real time    0.0351
    EDDIAG:  cpu time    0.3363: real time    0.3383
  RMM-DIIS:  cpu time    0.9260: real time    0.9374
    ORTHCH:  cpu time    0.0988: real time    0.0994
       DOS:  cpu time    0.0004: real time    0.0004
    CHARGE:  cpu time    0.0436: real time    0.0438
    MIXING:  cpu time    0.0017: real time    0.0017
    --------------------------------------------
      LOOP:  cpu time    1.4942: real time    1.5089

 eigenvalue-minimisations  :  1405
 total energy-change (2. order) :-0.4384046E-01  (-0.3723984E-02)
 number of electron     399.9999919 magnetization       2.0185919
 augmentation part      -23.7869439 magnetization       0.0835648

 Broyden mixing:
  rms(total) = 0.66633E-01    rms(broyden)= 0.66630E-01
  rms(prec ) = 0.80535E-01
  weight for this iteration     100.00

 eigenvalues of (default mixing * dielectric matrix)
  average eigenvalue GAMMA=   1.4042
  2.8315  2.3519  1.1222  0.8762  0.6218  0.6218

 Free energy of the ion-electron system (eV)
  ---------------------------------------------------
  alpha Z        PSCENC =       316.14514549
  Ewald energy   TEWEN  =    -14892.83741627
  -Hartree energ DENC   =      -143.06723259
  -exchange      EXHF   =         0.00000000
  -V(xc)+E(xc)   XCENC  =      -767.90714477
  PAW double counting   =     90387.02649526   -88643.61965499
  entropy T*S    EENTRO =        -0.05694551
  eigenvalues    EBANDS =      3031.44840446
  atomic energy  EATOM  =     10306.12861560
  Solvation  Ediel_sol  =         0.00000000
  ---------------------------------------------------
  free energy    TOTEN  =      -406.73973332 eV

  energy without entropy =     -406.68278782  energy(sigma->0) =     -406.71126057


--------------------------------------------------------------------------------------------------------




--------------------------------------- Iteration      1(  19)  ---------------------------------------


    POTLOK:  cpu time    0.0523: real time    0.0527
    SETDIJ:  cpu time    0.0350: real time    0.0351
    EDDIAG:  cpu time    0.3369: real time    0.3390
  RMM-DIIS:  cpu time    0.9271: real time    0.9387
    ORTHCH:  cpu time    0.0987: real time    0.0994
       DOS:  cpu time    0.0004: real time    0.0004
    CHARGE:  cpu time    0.0436: real time    0.0438
    MIXING:  cpu time    0.0018: real time    0.0018
    --------------------------------------------
      LOOP:  cpu time    1.4958: real time    1.5108

 eigenvalue-minimisations  :  1421
 total energy-change (2. order) :-0.9634009E-02  (-0.1190036E-02)
 number of electron     399.9999919 magnetization       1.3426620
 augmentation part      -23.7890355 magnetization      -0.0678582

 Broyden mixing:
  rms(total) = 0.28959E-01    rms(broyden)= 0.28957E-01
  rms(prec ) = 0.32607E-01
  weight for this iteration     100.00

 eigenvalues of (default mixing * dielectric matrix)
  average eigenvalue GAMMA=   1.3759
  3.0607  2.3532  1.1955  1.0093  0.8179  0.5855  0.6088

 Free energy of the ion-electron system (eV)
  ---------------------------------------------------
  alpha Z        PSCENC =       316.14514549
  Ewald energy   TEWEN  =    -14892.83741627
  -Hartree energ DENC   =      -143.33288458
  -exchange      EXHF   =         0.00000000
  -V(xc)+E(xc)   XCENC  =      -767.82734192
  PAW double counting   =     90189.35942010   -88446.01073057
  entropy T*S    EENTRO =        -0.06331140
  eigenvalues    EBANDS =      3031.68913621
  atomic energy  EATOM  =     10306.12861560
  Solvation  Ediel_sol  =         0.00000000
  ---------------------------------------------------
  free energy    TOTEN  =      -406.74936733 eV

  energy without entropy =     -406.68605593  energy(sigma->0) =     -406.71771163


--------------------------------------------------------------------------------------------------------




--------------------------------------- Iteration      1(  20)  ---------------------------------------


    POTLOK:  cpu time    0.0523: real time    0.0526
    SETDIJ:  cpu time    0.0350: real time    0.0351
    EDDIAG:  cpu time    0.3379: real time    0.3399
  RMM-DIIS:  cpu time    0.9481: real time    0.9603
    ORTHCH:  cpu time    0.0985: real time    0.0992
       DOS:  cpu time    0.0004: real time    0.0004
    CHARGE:  cpu time    0.0437: real time    0.0439
    MIXING:  cpu time    0.0020: real time    0.0020
    --------------------------------------------
      LOOP:  cpu time    1.5179: real time    1.5333

 eigenvalue-minimisations  :  1439
 total energy-change (2. order) :-0.2677784E-02  (-0.3687454E-03)
 number of electron     399.9999919 magnetization       0.9915056
 augmentation part      -23.7890373 magnetization      -0.0545235

 Broyden mixing:
  rms(total) = 0.15089E-01    rms(broyden)= 0.15086E-01
  rms(prec ) = 0.17401E-01
  weight for this iteration     100.00

 eigenvalues of (default mixing * dielectric matrix)
  average eigenvalue GAMMA=   1.3903
  3.3627  2.3018  1.5841  1.1256  0.8923  0.6936  0.6145  0.5482

 Free energy of the ion-electron system (eV)
  ---------------------------------------------------
  alpha Z        PSCENC =       316.14514549
  Ewald energy   TEWEN  =    -14892.83741627
  -Hartree energ DENC   =      -143.42012890
  -exchange      EXHF   =         0.00000000
  -V(xc)+E(xc)   XCENC  =      -767.81151982
  PAW double counting   =     90031.80662059   -88288.47365714
  entropy T*S    EENTRO =        -0.06846187
  eigenvalues    EBANDS =      3031.77875721
  atomic energy  EATOM  =     10306.12861560
  Solvation  Ediel_sol  =         0.00000000
  ---------------------------------------------------
  free energy    TOTEN  =      -406.75204511 eV

  energy without entropy =     -406.68358324  energy(sigma->0) =     -406.71781418


--------------------------------------------------------------------------------------------------------




--------------------------------------- Iteration      1(  21)  ---------------------------------------


    POTLOK:  cpu time    0.0523: real time    0.0527
    SETDIJ:  cpu time    0.0350: real time    0.0351
    EDDIAG:  cpu time    0.3376: real time    0.3396
  RMM-DIIS:  cpu time    0.9573: real time    0.9691
    ORTHCH:  cpu time    0.0991: real time    0.0998
       DOS:  cpu time    0.0004: real time    0.0004
    CHARGE:  cpu time    0.0436: real time    0.0438
    MIXING:  cpu time    0.0022: real time    0.0022
    --------------------------------------------
      LOOP:  cpu time    1.5275: real time    1.5426

 eigenvalue-minimisations  :  1424
 total energy-change (2. order) :-0.9852682E-03  (-0.1351749E-03)
 number of electron     399.9999919 magnetization       0.7451852
 augmentation part      -23.7890541 magnetization      -0.0638542

 Broyden mixing:
  rms(total) = 0.98196E-02    rms(broyden)= 0.98177E-02
  rms(prec ) = 0.11201E-01
  weight for this iteration     100.00

 eigenvalues of (default mixing * dielectric matrix)
  average eigenvalue GAMMA=   1.4215
  3.7737  2.1152  2.1152  1.1447  1.0223  0.8301  0.5336  0.6294  0.6294

 Free energy of the ion-electron system (eV)
  ---------------------------------------------------
  alpha Z        PSCENC =       316.14514549
  Ewald energy   TEWEN  =    -14892.83741627
  -Hartree energ DENC   =      -143.45385100
  -exchange      EXHF   =         0.00000000
  -V(xc)+E(xc)   XCENC  =      -767.80893120
  PAW double counting   =     90000.58614222   -88257.25879678
  entropy T*S    EENTRO =        -0.07120983
  eigenvalues    EBANDS =      3031.81727139
  atomic energy  EATOM  =     10306.12861560
  Solvation  Ediel_sol  =         0.00000000
  ---------------------------------------------------
  free energy    TOTEN  =      -406.75303038 eV

  energy without entropy =     -406.68182055  energy(sigma->0) =     -406.71742547


--------------------------------------------------------------------------------------------------------




--------------------------------------- Iteration      1(  22)  ---------------------------------------


    POTLOK:  cpu time    0.0523: real time    0.0526
    SETDIJ:  cpu time    0.0350: real time    0.0351
    EDDIAG:  cpu time    0.3375: real time    0.3395
  RMM-DIIS:  cpu time    0.9270: real time    0.9386
    ORTHCH:  cpu time    0.0999: real time    0.1006
       DOS:  cpu time    0.0004: real time    0.0004
    CHARGE:  cpu time    0.0436: real time    0.0438
    MIXING:  cpu time    0.0024: real time    0.0024
    --------------------------------------------
[...]
   0.104E+02 0.169E+02 -.112E+02   -.110E+02 -.161E+02 0.116E+02   -.625E+00 -.193E+01 -.919E+00   -.124E-02 0.566E-04 0.278E-04
   -.210E+02 -.131E+02 0.114E+01   0.189E+02 0.125E+02 -.881E+00   0.383E+01 0.163E+01 -.166E+00   0.293E-03 -.281E-03 0.347E-03
   -.686E+01 -.823E+01 0.109E+01   0.741E+01 0.877E+01 -.134E+01   -.179E+01 0.377E+00 0.789E+00   0.143E-02 0.173E-03 0.650E-05
   0.729E+00 -.118E+02 -.131E+01   0.251E+00 0.103E+02 0.683E+00   -.212E+01 0.266E+01 0.747E-01   0.823E-03 -.303E-03 0.294E-03
   -.158E+02 -.277E+02 -.527E+01   0.140E+02 0.272E+02 0.475E+01   0.368E+01 0.374E+01 0.827E+00   -.957E-03 -.188E-05 0.417E-03
   0.861E+01 0.171E+02 -.119E+02   -.825E+01 -.178E+02 0.122E+02   -.115E+01 0.118E-02 0.636E+00   0.108E-02 0.398E-03 -.259E-03
   -.265E+00 0.965E+01 0.113E+02   0.368E+00 -.787E+01 -.123E+02   0.267E+00 -.533E+01 0.195E+01   0.958E-03 -.276E-03 -.199E-03
   -.199E+02 -.113E+02 0.133E+02   0.188E+02 0.108E+02 -.145E+02   0.236E+01 0.124E+01 -.440E+00   -.548E-05 0.262E-03 -.142E-04
   -.213E+02 -.652E+01 -.794E+01   0.202E+02 0.706E+01 0.719E+01   0.469E+01 -.660E+00 0.196E+01   -.270E-03 -.388E-06 -.106E-03
   0.580E+01 0.322E+00 -.278E+01   -.506E+01 -.759E+00 0.355E+01   -.142E+01 0.403E+00 -.791E+00   0.107E-02 -.325E-03 0.638E-04
   0.191E+02 -.821E+01 0.840E+01   -.193E+02 0.762E+01 -.786E+01   -.563E+00 0.157E+01 -.159E+01   -.189E-02 0.621E-04 0.893E-04
   0.188E+02 0.465E+01 0.158E+02   -.186E+02 -.398E+01 -.161E+02   -.124E+01 -.127E+01 -.806E+00   0.377E-03 -.231E-03 -.615E-04
   -.142E+02 0.743E+01 0.580E+01   0.123E+02 -.763E+01 -.500E+01   0.581E+01 0.115E+01 -.225E+01   0.139E-02 0.145E-03 -.569E-04
   -.574E+01 -.471E+01 0.249E+02   0.420E+01 0.371E+01 -.245E+02   0.377E+01 0.128E+01 -.437E+01   0.109E-02 0.233E-03 -.170E-03
   0.378E+01 0.134E+02 0.403E+01   -.287E+01 -.114E+02 -.293E+01   -.355E+01 -.569E+01 -.225E+01   0.567E-03 0.256E-03 0.321E-03
   -.122E+02 -.161E+02 -.302E+01   0.124E+02 0.137E+02 0.184E+01   -.786E+00 0.459E+01 0.223E+01   0.380E-06 -.201E-03 0.109E-03
   0.182E+01 -.413E+01 0.523E+01   -.868E-01 0.484E+01 -.341E+01   -.312E+01 -.246E+00 -.308E+01   -.481E-03 0.680E-04 -.289E-03
   0.172E+02 0.178E+02 -.439E+01   -.151E+02 -.166E+02 0.355E+01   -.415E+01 -.306E+01 0.145E+01   0.409E-03 -.499E-03 -.626E-04
   0.659E+01 0.929E+01 -.337E+02   -.689E+01 -.974E+01 0.325E+02   0.380E-01 0.397E+00 0.352E+01   -.174E-02 0.857E-03 -.231E-03
   0.797E+01 -.130E+02 -.384E+01   -.903E+01 0.122E+02 0.390E+01   0.313E+01 0.317E+01 0.549E-01   0.137E-02 0.332E-04 -.566E-04
   0.107E+01 0.117E+01 0.109E+02   -.126E+01 0.755E+00 -.971E+01   -.265E+00 -.199E+01 -.148E+01   -.494E-03 -.342E-03 -.586E-03
   -.647E+01 -.134E+02 -.697E+01   0.528E+01 0.123E+02 0.673E+01   0.108E+01 0.197E+01 0.928E+00   0.130E-02 -.201E-03 0.369E-04
   -.481E+01 0.218E+02 -.727E+01   0.456E+01 -.186E+02 0.631E+01   -.435E+00 -.645E+01 0.764E+00   -.106E-02 -.486E-03 -.520E-03
   0.776E-01 -.614E+01 0.740E+01   0.123E+00 0.535E+01 -.830E+01   -.790E+00 0.298E+00 0.845E+00   0.149E-02 -.121E-03 0.212E-03
   0.165E+02 -.901E+01 0.116E+01   -.150E+02 0.660E+01 -.121E+01   -.284E+01 0.362E+01 0.660E+00   -.829E-03 -.105E-02 0.103E-03
   -.920E+01 -.217E+02 0.888E+01   0.100E+02 0.210E+02 -.772E+01   -.928E+00 0.256E+01 -.228E+01   -.120E-02 0.588E-03 -.310E-04
   0.136E+02 0.738E+01 0.180E+02   -.119E+02 -.621E+01 -.167E+02   -.290E+01 -.149E+01 -.242E+01   -.568E-03 0.242E-03 -.203E-03
   -.111E+02 0.170E+01 -.963E+01   0.101E+02 -.183E+01 0.826E+01   0.161E+01 -.677E+00 0.149E+01   0.121E-02 -.147E-03 0.336E-04
   0.176E+02 -.285E+01 -.162E+02   -.155E+02 0.316E+01 0.146E+02   -.564E+01 -.852E+00 0.335E+01   0.182E-03 -.377E-03 0.555E-04
   -.526E+00 -.255E+02 -.748E+01   0.570E+00 0.242E+02 0.595E+01   0.480E+00 0.281E+01 0.193E+01   0.111E-02 -.351E-03 0.149E-03
   0.247E+01 -.556E+01 0.675E+01   -.115E+01 0.601E+01 -.410E+01   -.212E+01 -.122E+01 -.423E+01   -.794E-03 0.145E-03 0.332E-03
   0.106E+02 -.156E+02 0.223E+02   -.841E+01 0.140E+02 -.203E+02   -.361E+01 0.370E+01 -.336E+01   -.118E-02 -.741E-03 0.521E-04
   0.167E+01 0.984E+01 -.708E+01   -.913E+00 -.826E+01 0.707E+01   -.107E+01 -.167E+01 0.115E+01   -.142E-02 -.350E-03 0.388E-03
   -.707E+01 0.513E+00 0.623E+01   0.655E+01 -.174E+01 -.503E+01   0.197E+01 0.197E+01 -.209E+01   -.120E-03 -.492E-03 -.248E-03
   -.333E+01 -.764E+01 -.592E+01   0.153E+01 0.824E+01 0.586E+01   0.271E+01 -.602E+00 0.658E+00   0.118E-02 -.123E-03 0.151E-03
   0.269E+01 -.155E+02 -.206E+02   -.181E+01 0.155E+02 0.211E+02   -.186E+01 0.140E+01 0.135E+01   0.454E-03 -.809E-04 0.122E-03
   0.240E+02 0.289E-01 -.148E+02   -.221E+02 -.981E+00 0.127E+02   -.447E+01 0.270E+01 0.555E+01   0.115E-02 0.323E-03 -.347E-03
   0.229E+02 0.239E+01 0.449E+01   -.192E+02 -.462E+00 -.434E+01   -.575E+01 -.249E+01 -.115E+01   0.134E-02 0.481E-03 0.376E-04
   -.883E+01 -.248E+01 -.196E+02   0.750E+01 0.220E+01 0.177E+02   0.306E+01 0.623E+00 0.411E+01   -.722E-03 -.171E-03 -.172E-03
   -.159E+02 -.600E+01 -.816E+01   0.168E+02 0.445E+01 0.870E+01   -.716E+00 0.307E+01 -.204E+00   -.109E-02 -.411E-03 0.249E-03
   0.149E+02 -.185E+02 -.916E+01   -.135E+02 0.173E+02 0.809E+01   -.297E+01 0.341E+01 0.314E+01   0.991E-03 -.306E-03 0.178E-03
   0.164E+02 -.611E+01 0.115E+01   -.144E+02 0.420E+01 0.102E+00   -.425E+01 0.252E+01 -.264E+01   -.724E-03 0.876E-03 0.245E-03
   0.209E+02 -.307E+01 -.488E+01   -.191E+02 0.348E+01 0.498E+01   -.262E+01 -.365E+00 0.576E+00   0.192E-03 -.192E-03 0.197E-03
   0.126E+02 0.111E+02 -.304E+01   -.108E+02 -.115E+02 0.287E+01   -.489E+01 -.122E+01 0.994E+00   0.156E-03 0.420E-03 0.260E-06
   -.681E+01 0.894E+01 -.292E+01   0.467E+01 -.686E+01 0.205E+01   0.533E+01 -.305E+01 -.116E+00   0.820E-03 0.732E-03 0.352E-03
   -.984E+01 -.110E+02 -.307E+01   0.781E+01 0.822E+01 0.359E+01   0.489E+01 0.697E+01 -.985E+00   0.131E-02 -.149E-03 -.179E-03
   0.124E+02 0.469E+01 0.139E+02   -.119E+02 -.373E+01 -.111E+02   -.895E+00 -.218E+01 -.561E+01   0.114E-02 -.202E-03 0.242E-03
   -.255E+02 -.592E+01 -.974E+01   0.259E+02 0.408E+01 0.878E+01   0.951E+00 0.218E+01 0.147E+01   0.414E-03 0.231E-03 0.984E-04
   -.276E+02 -.945E+01 -.188E+01   0.271E+02 0.824E+01 0.795E+00   0.178E+01 0.184E+01 0.773E+00   -.607E-03 -.681E-03 0.394E-03
   0.430E+01 0.174E+02 -.290E+02   -.428E+01 -.178E+02 0.269E+02   -.208E+00 -.129E+01 0.466E+01   -.901E-03 -.525E-03 0.178E-03
   0.151E+02 -.519E+01 0.143E+02   -.142E+02 0.499E+01 -.158E+02   -.920E+00 -.291E-01 0.131E+01   -.132E-02 -.582E-03 0.396E-03
   -.212E+01 0.767E+01 -.804E+01   0.227E+01 -.641E+01 0.732E+01   -.341E+00 -.186E+01 0.101E+01   -.856E-03 -.587E-03 -.381E-03
   -.191E+02 -.172E+02 0.695E+01   0.182E+02 0.146E+02 -.604E+01   0.227E+01 0.588E+01 -.232E+01   -.961E-03 0.168E-04 -.153E-03
   -.129E+02 -.110E+02 0.486E+01   0.113E+02 0.944E+01 -.581E+01   0.320E+01 0.302E+01 0.121E+01   -.156E-02 0.644E-03 0.599E-04
   0.340E+01 -.577E+00 0.268E+02   -.423E+01 -.894E+00 -.237E+02   0.816E+00 0.227E+01 -.739E+01   -.875E-03 0.513E-03 0.415E-03
   -.102E+02 0.916E+01 -.233E-01   0.996E+01 -.898E+01 -.105E+01   0.340E+00 -.604E+00 0.241E+01   -.241E-03 0.142E-03 -.466E-03
   0.303E+01 0.138E+02 0.524E+01   -.536E+01 -.140E+02 -.395E+01   0.290E+01 -.113E+00 -.248E+01   -.138E-02 0.830E-03 -.226E-03
   -.347E+01 -.696E+01 0.891E+01   0.614E+01 0.879E+01 -.107E+02   -.413E+01 -.275E+01 0.210E+01   -.697E-03 0.208E-03 -.120E-03
   0.185E+02 0.104E+00 -.105E+02   -.185E+02 0.588E+00 0.108E+02   -.234E+01 -.161E+01 0.641E-01   0.988E-03 0.516E-04 -.123E-04
   0.107E+02 0.530E+01 0.101E+02   -.953E+01 -.624E+01 -.944E+01   -.210E+01 0.176E+01 -.192E+01   0.912E-03 0.245E-03 -.255E-03
   -.648E+00 0.104E+02 0.795E+01   -.480E+00 -.101E+02 -.721E+01   0.219E+01 -.173E+01 -.127E+01   -.110E-02 -.190E-03 -.220E-03
   0.317E+01 0.195E+02 0.210E+02   -.283E+01 -.172E+02 -.186E+02   -.302E+00 -.470E+01 -.639E+01   0.153E-02 0.187E-03 0.248E-03
   -.247E+01 0.105E+02 0.111E+02   0.295E+01 -.923E+01 -.102E+02   -.897E+00 -.334E+01 -.129E+01   -.102E-02 0.900E-04 0.134E-03
   0.519E+01 0.318E+02 0.317E+01   -.575E+01 -.287E+02 -.479E+01   0.738E+00 -.705E+01 0.229E+01   0.945E-03 -.362E-03 -.462E-04
   -.101E+02 0.927E+01 -.400E+01   0.971E+01 -.776E+01 0.277E+01   0.119E+01 -.316E+01 0.243E+01   0.734E-03 -.296E-03 -.363E-03
   -.233E+02 0.201E+02 0.227E+02   0.225E+02 -.193E+02 -.199E+02   0.381E+01 -.305E+01 -.599E+01   -.274E-05 -.734E-04 0.126E-03
   0.235E+01 -.347E+01 0.668E+01   -.245E+01 0.394E+01 -.677E+01   0.288E+00 0.285E+00 -.399E+00   0.884E-03 -.574E-03 -.494E-04
   0.133E+02 0.906E+01 0.116E+02   -.129E+02 -.828E+01 -.101E+02   -.104E+01 -.156E+01 -.342E+01   -.132E-02 0.680E-03 0.187E-03
   0.147E+01 -.256E+01 -.236E+01   -.210E+01 0.282E+01 0.940E+00   0.949E+00 -.675E+00 0.137E+01   -.746E-03 0.534E-04 -.349E-03
   -.244E+02 0.542E+01 -.164E+02   0.235E+02 -.525E+01 0.155E+02   0.359E+01 -.150E+01 0.349E+01   0.136E-03 -.273E-03 0.514E-03
   -.176E+02 -.744E+01 -.267E+02   0.161E+02 0.767E+01 0.255E+02   0.248E+01 0.546E-03 0.284E+01   -.881E-03 -.483E-03 0.266E-03
 -----------------------------------------------------------------------------------------------
   -.173E+01 -.829E+00 -.700E+01   -.178E-13 0.135E-12 0.213E-13   0.174E+01 0.825E+00 0.701E+01   0.137E-02 0.364E-03 -.155E-03
 
 
 POSITION                                       TOTAL-FORCE (eV/Angst)
 -----------------------------------------------------------------------------------
      1.16463      0.81239      9.47919         0.038104     -1.432631      1.709515
      4.33298      4.43283      1.68862        -1.534878     -0.229558     -1.993891
      3.33330      3.09096      9.80422        -0.290517      0.335968      1.901138
      9.07350      3.71021      1.17514         0.691258     -0.346755      1.355454
      5.03523     10.03397      7.29219        -0.477646     -2.768976      3.202698
      6.33269      0.29830      2.41428        -0.068098      1.325721     -0.358510
      8.23183      4.40663      6.91692        -0.140994      0.606571     -1.835090
      2.61559      4.17794      4.63445        -4.078310      2.857576     -0.438850
      3.51764      9.57636      2.61295         1.769112      0.050088      0.649113
      7.49004      0.11255      7.62189         0.108874     -1.889775      0.438901
      8.40890      0.46051      5.56257         2.253682      1.405361     -0.718993
      1.87904      2.24849      8.14506        -0.055080      4.599679     -1.256331
      9.47212      1.27998      8.23976        -0.425454     -0.241648     -0.484788
      6.30880      4.08319      2.59386         0.555804     -2.035771      0.675437
      0.71232      4.78416      3.21873         0.148684      0.477119     -0.111705
      2.76024      9.41236      0.43481        -0.409066     -0.706809      0.669157
     10.15893      2.58939      3.12621        -0.625478      1.839426      2.049277
      4.74366      5.53583      3.60536         0.413642      0.402603      1.389356
      2.26917      7.28279      0.08391         1.380541     -0.045515     -1.134620
      6.95565      8.34700      1.53057         0.012083     -1.069104      0.496510
      8.47327      7.64222      7.68694         1.455622     -0.346009     -0.159513
      4.45592      9.73417      5.25079        -1.757040     -3.083241      0.462768
      8.97247      9.38877      9.20575         0.162127      0.797675     -1.626587
      4.23582      7.50369      1.74023         0.603730      1.851760     -2.594673
      7.92140      1.97484      2.60877         0.556506     -0.323578      1.751382
      9.68987      5.50005      9.94964        -0.081071     -0.843538      0.175206
      9.55993      0.45867      3.46562         0.435338      0.001481      3.062580
      3.45075      2.18711      5.83024         0.901296      0.745726      1.456970
      4.37073      2.38700      8.04824        -1.529705     -0.982466     -0.077434
      6.85143      8.74211      5.95745        -1.242898     -1.208516     -0.435927
      4.01206      7.77783      7.16445         1.715242      1.037983      0.092525
      2.75204      1.36006      0.97567        -1.238792      0.922865      0.541741
      3.29896      5.99584      6.01849        -1.136912      1.076559     -0.550391
      6.02577      3.66105      7.37691         1.882694      3.233568      0.305948
      2.47065      0.44371      4.78160        -0.785420     -0.653220      0.853254
      0.29924      9.44209      7.52609         0.370924     -3.552952      0.896381
      4.43024      1.11809      3.71582         1.230775      0.713689     -1.584867
      9.12270      8.59791      5.57867         3.501963     -0.120280      1.208387
      2.13993      3.77947      1.60424        -0.674268     -0.033244     -0.021783
      7.01973      9.80629      9.99847        -0.857320      0.978317     -1.045879
      0.05732      4.91865      5.46058        -0.992362     -0.603440     -1.083839
      1.63399      4.27101      6.92593         3.946478      0.945842     -1.439493
      2.36791      2.24333      3.28894         2.232692      0.280073     -3.933259
      0.55809      3.42288      9.82163        -2.637883     -3.726332     -1.144691
      4.52682      7.90630      9.38444        -0.524656      2.249706      1.051888
      5.59890      3.77950      9.77973        -1.395467      0.464639     -1.253468
      0.89609      6.22922      1.35893        -2.102921     -1.863025      0.608135
      6.61014      1.78627      8.78118        -0.267152     -0.053482      2.310571
      1.89754      7.96206      2.51144         2.070348      2.377019      0.117350
      5.99156      6.21399      1.82401        -0.455966     -0.068538     -0.255135
      2.13192      6.33968      7.92593        -0.112268      0.892600      0.682736
      7.10525      6.82975      3.54475        -0.689709     -3.214870     -0.198373
      2.39789      8.76677      8.44738        -0.587897     -0.497833     -0.057490
      8.83240      7.48441      0.09904        -1.327938      1.203242      0.606137
      6.42978      0.26066      4.66146        -0.118640      1.832105     -1.120730
      9.18824      2.91580      5.21262        -1.129899     -0.326305     -1.117022
      3.56057      4.54489      7.99427         0.674134     -0.803329      0.119440
     10.06642      8.17273      2.22359        -3.551132     -0.547285      1.730722
      2.23566      8.35168      5.99007         0.524922      1.498693      0.401451
      8.62186      9.86201      1.77619        -0.800116     -0.772523     -1.570708
      6.55030      6.83600     10.03692        -1.449390      2.043088     -1.365439
      6.34168      8.25552      8.08383        -0.306690     -0.088937      1.145444
      9.45507      6.60566      4.05952         1.455287      0.741639     -0.885361
      0.44822      9.22126      0.39875         0.911986     -0.000969      0.597720
      3.70367      7.57065      4.02414        -0.977878      1.473579      1.888784
      1.26680      2.45407      5.00676        -2.569408      1.751618      3.423429
      1.52050      0.26083      2.55226        -2.019253     -0.561290     -1.002728
      8.36764      4.33056      3.28502         1.722743      0.336451      2.190574
      6.64774      4.70517      5.09985         0.124389      1.522259      0.337130
      0.41557      7.00430      6.22122        -1.497669      2.165995      2.077171
      8.85313      1.21460      0.21618        -2.252979      0.606355     -1.391238
     10.13673      5.50128      7.76418        -0.815905      0.049706      0.678737
     10.18578      3.14631      7.31433        -3.168872     -1.609894      0.818482
      0.37829      1.90401      1.21813         3.190014     -0.975383     -0.989783
      1.90146      4.89855      9.79788         2.856672      4.212485     -0.458905
      1.70346      6.61329      4.57221        -0.405149     -1.216192     -2.827663
      3.97135      0.44093      9.22754         1.354972      0.338138      0.508593
      5.35141      5.90696      7.73288         1.308329      0.623060     -0.308308
      7.88638      6.56788      5.61493        -0.191336     -1.639835      2.535899
      7.63919      5.65134      8.56302         0.018223     -0.224773     -0.153709
      8.72781      6.22291      1.91128        -0.187051     -0.609040      0.291708
      7.93930      8.71846      3.76828         1.436286      3.225921     -1.408158
      7.79708      2.19081      6.85644         1.659918      1.487968      0.262714
      5.72053      1.62020      6.55262        -0.011578      0.799753     -4.319971
      4.72282      2.12368      1.46652         0.150471     -0.419014      1.330394
      6.78860      2.32907      0.82444         0.566292     -0.290758     -1.183033
      5.08587      9.81672      0.72796        -1.450500     -0.921083      0.298804
      0.94266      9.10053      4.32310        -2.302551     -0.916646      0.385290
      0.57195      0.78889      6.18934        -0.970185      0.818065     -1.266122
      7.22768      4.89005      0.58604         1.063491     -1.415330     -0.534933
      2.73666      0.52940      7.42789         0.039696     -2.381697     -4.064490
      6.77348      2.62411      4.57068        -0.421470     -2.077878     -0.421902
      2.80626      6.04309      2.45495         0.182535     -3.971082      0.670275
      4.15520      5.84106      9.91081         0.786883     -1.653660      1.202735
      4.39713      3.31858      3.90926         3.000412     -2.319899     -3.192619
      0.39949      7.50167      8.89624         0.193997      0.754225     -0.495901
      8.44983      3.45987      9.25153        -0.592322     -0.771719     -1.961310
      5.59795      8.60003      3.46757         0.320665     -0.418300     -0.050096
      4.47968      4.31461      5.78324         2.764982     -1.317821      2.610542
      5.43056      6.84422      5.35713         0.948321      0.237787      1.659155
 -----------------------------------------------------------------------------------
    total drift:                                0.005158     -0.003121      0.013617


--------------------------------------------------------------------------------------------------------



  FREE ENERGIE OF THE ION-ELECTRON SYSTEM (eV)
  ---------------------------------------------------
  free  energy   TOTEN  =      -406.75419991 eV

  energy  without entropy=     -406.67907418  energy(sigma->0) =     -406.71663705
 


--------------------------------------------------------------------------------------------------------


    POTLOK:  cpu time    0.0893: real time    0.0896


--------------------------------------------------------------------------------------------------------


     LOOP+:  cpu time   36.7591: real time   37.4213
    4ORBIT:  cpu time    0.0000: real time    0.0000

 total amount of memory used by VASP MPI-rank0    53946. kBytes
=======================================================================

   base      :      30000. kBytes
   nonlr-proj:       8278. kBytes
   fftplans  :       1377. kBytes
   grid      :       7520. kBytes
   one-center:        614. kBytes
   wavefun   :       6157. kBytes
 
  
  
 General timing and accounting informations for this job:
 ========================================================
  
                  Total CPU time used (sec):       37.878
                            User time (sec):       36.392
                          System time (sec):        1.486
                         Elapsed time (sec):       39.812
  
                   Maximum memory used (kb):      174976.
                   Average memory used (kb):           0.
  
                          Minor page faults:       107947
                          Major page faults:            0
                 Voluntary context switches:          871
