BEGIN_CFG
 Size
    100
 Supercell
        10.211495      0.000000      0.000000
         0.000000     10.211495      0.000000
         0.000000      0.000000     10.211495
 AtomData:  id type       cartes_x      cartes_y      cartes_z           fx          fy          fz
             1    0       1.164630      0.812390      9.479190     0.038104   -1.432631    1.709515
             2    0       4.332980      4.432830      1.688620    -1.534878   -0.229558   -1.993891
             3    0       3.333300      3.090960      9.804220    -0.290517    0.335968    1.901138
             4    0       9.073500      3.710210      1.175140     0.691258   -0.346755    1.355454
             5    0       5.035230     10.033970      7.292190    -0.477646   -2.768976    3.202698
             6    0       6.332690      0.298300      2.414280    -0.068098    1.325721   -0.358510
             7    0       8.231830      4.406630      6.916920    -0.140994    0.606571   -1.835090
             8    0       2.615590      4.177940      4.634450    -4.078310    2.857576   -0.438850
             9    0       3.517640      9.576360      2.612950     1.769112    0.050088    0.649113
            10    0       7.490040      0.112550      7.621890     0.108874   -1.889775    0.438901
            11    0       8.408900      0.460510      5.562570     2.253682    1.405361   -0.718993
            12    0       1.879040      2.248490      8.145060    -0.055080    4.599679   -1.256331
            13    0       9.472120      1.279980      8.239760    -0.425454   -0.241648   -0.484788
            14    0       6.308800      4.083190      2.593860     0.555804   -2.035771    0.675437
            15    0       0.712320      4.784160      3.218730     0.148684    0.477119   -0.111705
            16    0       2.760240      9.412360      0.434810    -0.409066   -0.706809    0.669157
            17    0      10.158930      2.589390      3.126210    -0.625478    1.839426    2.049277
            18    0       4.743660      5.535830      3.605360     0.413642    0.402603    1.389356
            19    0       2.269170      7.282790      0.083910     1.380541   -0.045515   -1.134620
            20    0       6.955650      8.347000      1.530570     0.012083   -1.069104    0.496510
            21    0       8.473270      7.642220      7.686940     1.455622   -0.346009   -0.159513
            22    0       4.455920      9.734170      5.250790    -1.757040   -3.083241    0.462768
            23    0       8.972470      9.388770      9.205750     0.162127    0.797675   -1.626587
            24    0       4.235820      7.503690      1.740230     0.603730    1.851760   -2.594673
            25    0       7.921400      1.974840      2.608770     0.556506   -0.323578    1.751382
            26    0       9.689870      5.500050      9.949640    -0.081071   -0.843538    0.175206
            27    0       9.559930      0.458670      3.465620     0.435338    0.001481    3.062580
            28    0       3.450750      2.187110      5.830240     0.901296    0.745726    1.456970
            29    0       4.370730      2.387000      8.048240    -1.529705   -0.982466   -0.077434
            30    0       6.851430      8.742110      5.957450    -1.242898   -1.208516   -0.435927
            31    0       4.012060      7.777830      7.164450     1.715242    1.037983    0.092525
            32    0       2.752040      1.360060      0.975670    -1.238792    0.922865    0.541741
            33    0       3.298960      5.995840      6.018490    -1.136912    1.076559   -0.550391
            34    0       6.025770      3.661050      7.376910     1.882694    3.233568    0.305948
            35    0       2.470650      0.443710      4.781600    -0.785420   -0.653220    0.853254
            36    0       0.299240      9.442090      7.526090     0.370924   -3.552952    0.896381
            37    0       4.430240      1.118090      3.715820     1.230775    0.713689   -1.584867
            38    0       9.122700      8.597910      5.578670     3.501963   -0.120280    1.208387
            39    0       2.139930      3.779470      1.604240    -0.674268   -0.033244   -0.021783
            40    0       7.019730      9.806290      9.998470    -0.857320    0.978317   -1.045879
            41    0       0.057320      4.918650      5.460580    -0.992362   -0.603440   -1.083839
            42    0       1.633990      4.271010      6.925930     3.946478    0.945842   -1.439493
            43    0       2.367910      2.243330      3.288940     2.232692    0.280073   -3.933259
            44    0       0.558090      3.422880      9.821630    -2.637883   -3.726332   -1.144691
            45    0       4.526820      7.906300      9.384440    -0.524656    2.249706    1.051888
            46    0       5.598900      3.779500      9.779730    -1.395467    0.464639   -1.253468
            47    0       0.896090      6.229220      1.358930    -2.102921   -1.863025    0.608135
            48    0       6.610140      1.786270      8.781180    -0.267152   -0.053482    2.310571
            49    0       1.897540      7.962060      2.511440     2.070348    2.377019    0.117350
            50    0       5.991560      6.213990      1.824010    -0.455966   -0.068538   -0.255135
            51    0       2.131920      6.339680      7.925930    -0.112268    0.892600    0.682736
            52    0       7.105250      6.829750      3.544750    -0.689709   -3.214870   -0.198373
            53    0       2.397890      8.766770      8.447380    -0.587897   -0.497833   -0.057490
            54    0       8.832400      7.484410      0.099040    -1.327938    1.203242    0.606137
            55    0       6.429780      0.260660      4.661460    -0.118640    1.832105   -1.120730
            56    0       9.188240      2.915800      5.212620    -1.129899   -0.326305   -1.117022
            57    0       3.560570      4.544890      7.994270     0.674134   -0.803329    0.119440
            58    0      10.066420      8.172730      2.223590    -3.551132   -0.547285    1.730722
            59    0       2.235660      8.351680      5.990070     0.524922    1.498693    0.401451
            60    0       8.621860      9.862010      1.776190    -0.800116   -0.772523   -1.570708
            61    0       6.550300      6.836000     10.036920    -1.449390    2.043088   -1.365439
            62    0       6.341680      8.255520      8.083830    -0.306690   -0.088937    1.145444
            63    0       9.455070      6.605660      4.059520     1.455287    0.741639   -0.885361
            64    0       0.448220      9.221260      0.398750     0.911986   -0.000969    0.597720
            65    0       3.703670      7.570650      4.024140    -0.977878    1.473579    1.888784
            66    0       1.266800      2.454070      5.006760    -2.569408    1.751618    3.423429
            67    0       1.520500      0.260830      2.552260    -2.019253   -0.561290   -1.002728
            68    0       8.367640      4.330560      3.285020     1.722743    0.336451    2.190574
            69    0       6.647740      4.705170      5.099850     0.124389    1.522259    0.337130
            70    0       0.415570      7.004300      6.221220    -1.497669    2.165995    2.077171
            71    0       8.853130      1.214600      0.216180    -2.252979    0.606355   -1.391238
            72    0      10.136730      5.501280      7.764180    -0.815905    0.049706    0.678737
            73    0      10.185780      3.146310      7.314330    -3.168872   -1.609894    0.818482
            74    0       0.378290      1.904010      1.218130     3.190014   -0.975383   -0.989783
            75    0       1.901460      4.898550      9.797880     2.856672    4.212485   -0.458905
            76    0       1.703460      6.613290      4.572210    -0.405149   -1.216192   -2.827663
            77    0       3.971350      0.440930      9.227540     1.354972    0.338138    0.508593
            78    0       5.351410      5.906960      7.732880     1.308329    0.623060   -0.308308
            79    0       7.886380      6.567880      5.614930    -0.191336   -1.639835    2.535899
            80    0       7.639190      5.651340      8.563020     0.018223   -0.224773   -0.153709
            81    0       8.727810      6.222910      1.911280    -0.187051   -0.609040    0.291708
            82    0       7.939300      8.718460      3.768280     1.436286    3.225921   -1.408158
            83    0       7.797080      2.190810      6.856440     1.659918    1.487968    0.262714
            84    0       5.720530      1.620200      6.552620    -0.011578    0.799753   -4.319971
            85    0       4.722820      2.123680      1.466520     0.150471   -0.419014    1.330394
            86    0       6.788600      2.329070      0.824440     0.566292   -0.290758   -1.183033
            87    0       5.085870      9.816720      0.727960    -1.450500   -0.921083    0.298804
            88    0       0.942660      9.100530      4.323100    -2.302551   -0.916646    0.385290
            89    0       0.571950      0.788890      6.189340    -0.970185    0.818065   -1.266122
            90    0       7.227680      4.890050      0.586040     1.063491   -1.415330   -0.534933
            91    0       2.736660      0.529400      7.427890     0.039696   -2.381697   -4.064490
            92    0       6.773480      2.624110      4.570680    -0.421470   -2.077878   -0.421902
            93    0       2.806260      6.043090      2.454950     0.182535   -3.971082    0.670275
            94    0       4.155200      5.841060      9.910810     0.786883   -1.653660    1.202735
            95    0       4.397130      3.318580      3.909260     3.000412   -2.319899   -3.192619
            96    0       0.399490      7.501670      8.896240     0.193997    0.754225   -0.495901
            97    0       8.449830      3.459870      9.251530    -0.592322   -0.771719   -1.961310
            98    0       5.597950      8.600030      3.467570     0.320665   -0.418300   -0.050096
            99    0       4.479680      4.314610      5.783240     2.764982   -1.317821    2.610542
           100    0       5.430560      6.844220      5.357130     0.948321    0.237787    1.659155
 Energy
       -406.754199910000
 PlusStress:  xx          yy          zz          yz          xz          xy
       468.58373   470.26174   470.43117    -6.72963     1.42910     4.96935
 Feature   EFS_by	VASP
END_CFG

