<?xml version="1.0" encoding="ISO-8859-1"?>
<modeling>
 <generator>
  <i name="program" type="string">vasp </i>
  <i name="version" type="string">5.4.4.18Apr17-6-g9f103f2a35  </i>
  <i name="subversion" type="string">(build Sep 16 2020 16:20:45) complex            parallel </i>
  <i name="platform" type="string">LinuxIFC </i>
  <i name="date" type="string">2021 08 10 </i>
  <i name="time" type="string">00:45:13 </i>
 </generator>
 <incar>
  <i type="string" name="PREC">normal</i>
  <i type="string" name="ALGO"> Very Fast</i>
  <i type="int" name="ISPIN">     2</i>
  <i type="int" name="NELM">    60</i>
  <i type="int" name="NELMIN">     4</i>
  <i name="EDIFF">      0.00001000</i>
  <i type="int" name="ISYM">     0</i>
  <i type="string" name="LREAL"> auto</i>
  <i type="int" name="ISMEAR">     0</i>
  <i name="SIGMA">      0.05000000</i>
  <i type="logical" name="LWAVE"> F  </i>
  <i type="logical" name="LCHARG"> F  </i>
  <v type="int" name="KPOINT_BSE">    -1     0     0     0</v>
  <i type="int" name="NELM">    60</i>
 </incar>
 <structure name="primitive_cell" >
  <crystal>
   <varray name="basis" >
    <v>      10.21149500       0.00000000       0.00000000 </v>
    <v>       0.00000000      10.21149500       0.00000000 </v>
    <v>       0.00000000       0.00000000      10.21149500 </v>
   </varray>
   <i name="volume">   1064.79986425 </i>
   <varray name="rec_basis" >
    <v>       0.09792885       0.00000000       0.00000000 </v>
    <v>       0.00000000       0.09792885       0.00000000 </v>
    <v>       0.00000000       0.00000000       0.09792885 </v>
   </varray>
  </crystal>
  <varray name="positions" >
   <v>       0.11405100       0.07955640      -0.07171400 </v>
   <v>       0.18401200       0.22019200      -0.20236400 </v>
   <v>       0.04389380      -0.09697300       0.03904900 </v>
   <v>      -0.07240600       0.12534700      -0.19309000 </v>
   <v>       0.03704510       0.18645800       0.11929000 </v>
   <v>       0.26950400       0.13318900       0.09554580 </v>
   <v>       0.27030700      -0.07825800       0.04258020 </v>
   <v>       0.26799800       0.05184380      -0.27259500 </v>
   <v>       0.02930410      -0.07534700      -0.26297900 </v>
   <v>       0.05465280       0.33519900      -0.03817900 </v>
   <v>      -0.13302300       0.11894400       0.02117060 </v>
   <v>       0.23482300      -0.14148000      -0.17275800 </v>
   <v>       0.38891000       0.04317980      -0.09635800 </v>
   <v>      -0.12133600      -0.08056900      -0.09849100 </v>
   <v>       0.32642600       0.30269400      -0.03988400 </v>
   <v>       0.05601020       0.07725470      -0.39388500 </v>
   <v>       0.14890100       0.02554310       0.24994000 </v>
   <v>      -0.00251800       0.30811500      -0.28371600 </v>
   <v>       0.03912180      -0.26537000      -0.12880100 </v>
   <v>       0.42802100       0.23375600      -0.21184500 </v>
   <v>       0.20956100       0.37011900       0.15710100 </v>
   <v>      -0.15567100      -0.03422500       0.17394000 </v>
   <v>      -0.17251800       0.33882100      -0.09400800 </v>
   <v>       0.22221700      -0.28680500       0.00821700 </v>
   <v>      -0.11144300       0.36333700       0.11508000 </v>
   <v>       0.18620800       0.47970900      -0.04050500 </v>
   <v>      -0.01420700      -0.19965400       0.21775400 </v>
   <v>       0.16001500       0.41825500      -0.32175200 </v>
   <v>       0.34447800      -0.06219800       0.25588300 </v>
   <v>       0.49805300      -0.03866000       0.07128790 </v>
   <v>      -0.26650900       0.01102160      -0.25359700 </v>
   <v>       0.46250000       0.20797000       0.14361500 </v>
   <v>      -0.00514800       0.25357600       0.30614600 </v>
   <v>       0.23188700       0.21968700       0.32208200 </v>
   <v>      -0.13505300      -0.26706000       0.00969853 </v>
   <v>       0.33792800       0.21418100      -0.42905100 </v>
   <v>       0.18582400      -0.22028500       0.24594200 </v>
   <v>       0.21893600      -0.18213000      -0.41339900 </v>
   <v>      -0.31256600      -0.03968100      -0.02086100 </v>
   <v>       0.49309400      -0.01738500      -0.28588400 </v>
   <v>       0.44330600      -0.22574500      -0.08099300 </v>
   <v>      -0.06380700       0.04491690       0.33938400 </v>
   <v>      -0.23644100       0.21454400      -0.32855700 </v>
   <v>       0.34868300       0.44507600      -0.21713000 </v>
   <v>       0.12405600       0.24032400       0.49030600 </v>
   <v>      -0.17022200      -0.25160600      -0.24722700 </v>
   <v>       0.24194800       0.04345200       0.46825700 </v>
   <v>       0.39289600      -0.23832600      -0.29839400 </v>
   <v>      -0.35267700       0.17492700      -0.14006900 </v>
   <v>      -0.17652600       0.04509730      -0.45526400 </v>
   <v>      -0.22426600       0.19339400       0.25547400 </v>
   <v>      -0.05108200      -0.46138600      -0.02564300 </v>
   <v>       0.20877600      -0.37916200      -0.22382300 </v>
   <v>      -0.33520000       0.22808300       0.08073680 </v>
   <v>      -0.10662400      -0.15801700      -0.45368700 </v>
   <v>      -0.00732200      -0.46126600      -0.23966300 </v>
   <v>       0.04069660      -0.31407700      -0.39076300 </v>
   <v>      -0.10020600       0.28554100      -0.48953400 </v>
   <v>       0.08775280      -0.38998000       0.13307800 </v>
   <v>       0.41480900      -0.26517200       0.17041900 </v>
   <v>      -0.45170600       0.37012200      -0.04228200 </v>
   <v>       0.42432400       0.43410200       0.16536500 </v>
   <v>       0.09231330      -0.10879600       0.42335600 </v>
   <v>      -0.19386600       0.43153600      -0.32263400 </v>
   <v>      -0.43979500       0.15866400      -0.35830900 </v>
   <v>       0.43636300      -0.04674400      -0.48579600 </v>
   <v>       0.43384800       0.10949300       0.36388600 </v>
   <v>       0.06975700       0.46850700       0.31520700 </v>
   <v>      -0.31884100      -0.18258800       0.14988700 </v>
   <v>       0.00561304       0.48167800      -0.46525200 </v>
   <v>       0.40691400      -0.42799200      -0.02944600 </v>
   <v>      -0.37896700      -0.19154600      -0.20836000 </v>
   <v>      -0.29220200       0.47887700       0.05739000 </v>
   <v>      -0.37984700       0.02921240       0.23642800 </v>
   <v>      -0.40990300       0.35852200      -0.27758800 </v>
   <v>       0.25614200       0.40914100       0.45384600 </v>
   <v>       0.43869000       0.42252500      -0.43365400 </v>
   <v>      -0.14529600      -0.39059800       0.18716900 </v>
   <v>      -0.22251300      -0.14621100       0.36902300 </v>
   <v>      -0.18056700       0.42408700       0.32169800 </v>
   <v>       0.27481400      -0.40820700       0.24041000 </v>
   <v>      -0.32904700      -0.14389500      -0.41659400 </v>
   <v>      -0.25190300      -0.44657100      -0.16143300 </v>
   <v>       0.43060600       0.32498500       0.38282900 </v>
   <v>       0.36269600      -0.25861500       0.39407900 </v>
   <v>      -0.35853700      -0.33055800      -0.01709600 </v>
   <v>       0.32306300      -0.41283400      -0.41061600 </v>
   <v>      -0.45179900      -0.15780900       0.33957500 </v>
   <v>       0.16681800      -0.35236800       0.44775100 </v>
   <v>      -0.07407600      -0.35311500       0.39754400 </v>
   <v>      -0.47594300      -0.42153800      -0.24272800 </v>
   <v>      -0.22769600      -0.35681500      -0.45013600 </v>
   <v>      -0.38218600       0.39986200       0.25401400 </v>
   <v>      -0.37033900       0.02552610       0.45649100 </v>
   <v>      -0.33668100       0.25697600       0.44760100 </v>
   <v>      -0.46819100      -0.32975300      -0.47538200 </v>
   <v>      -0.41325300      -0.39147100       0.17862300 </v>
   <v>       0.46454100      -0.45788300       0.35306900 </v>
   <v>      -0.30419100      -0.33117000       0.34713300 </v>
   <v>      -0.34899400       0.46077200       0.49942200 </v>
  </varray>
 </structure>
 <varray name="primitive_index" >
  <v type="int" >        1 </v>
  <v type="int" >       12 </v>
  <v type="int" >       64 </v>
  <v type="int" >       13 </v>
  <v type="int" >       74 </v>
  <v type="int" >       32 </v>
  <v type="int" >       16 </v>
  <v type="int" >       91 </v>
  <v type="int" >       36 </v>
  <v type="int" >       44 </v>
  <v type="int" >       71 </v>
  <v type="int" >       53 </v>
  <v type="int" >       77 </v>
  <v type="int" >       23 </v>
  <v type="int" >        3 </v>
  <v type="int" >       89 </v>
  <v type="int" >       67 </v>
  <v type="int" >       73 </v>
  <v type="int" >       96 </v>
  <v type="int" >       29 </v>
  <v type="int" >       39 </v>
  <v type="int" >       60 </v>
  <v type="int" >       97 </v>
  <v type="int" >       19 </v>
  <v type="int" >        4 </v>
  <v type="int" >       75 </v>
  <v type="int" >       58 </v>
  <v type="int" >       42 </v>
  <v type="int" >        9 </v>
  <v type="int" >       87 </v>
  <v type="int" >       10 </v>
  <v type="int" >       85 </v>
  <v type="int" >       17 </v>
  <v type="int" >       43 </v>
  <v type="int" >       54 </v>
  <v type="int" >       28 </v>
  <v type="int" >       49 </v>
  <v type="int" >       59 </v>
  <v type="int" >       40 </v>
  <v type="int" >        5 </v>
  <v type="int" >       45 </v>
  <v type="int" >       27 </v>
  <v type="int" >       83 </v>
  <v type="int" >       57 </v>
  <v type="int" >       66 </v>
  <v type="int" >       21 </v>
  <v type="int" >       35 </v>
  <v type="int" >       31 </v>
  <v type="int" >       48 </v>
  <v type="int" >       11 </v>
  <v type="int" >       25 </v>
  <v type="int" >       26 </v>
  <v type="int" >       51 </v>
  <v type="int" >       86 </v>
  <v type="int" >       38 </v>
  <v type="int" >       72 </v>
  <v type="int" >       70 </v>
  <v type="int" >       56 </v>
  <v type="int" >       47 </v>
  <v type="int" >       24 </v>
  <v type="int" >       46 </v>
  <v type="int" >        2 </v>
  <v type="int" >       88 </v>
  <v type="int" >        7 </v>
  <v type="int" >       84 </v>
  <v type="int" >       22 </v>
  <v type="int" >       37 </v>
  <v type="int" >       15 </v>
  <v type="int" >       20 </v>
  <v type="int" >       41 </v>
  <v type="int" >       94 </v>
  <v type="int" >       62 </v>
  <v type="int" >       90 </v>
  <v type="int" >        6 </v>
  <v type="int" >       34 </v>
  <v type="int" >        8 </v>
  <v type="int" >       99 </v>
  <v type="int" >       81 </v>
  <v type="int" >       82 </v>
  <v type="int" >       68 </v>
  <v type="int" >       93 </v>
  <v type="int" >       30 </v>
  <v type="int" >       80 </v>
  <v type="int" >       95 </v>
  <v type="int" >       65 </v>
  <v type="int" >       61 </v>
  <v type="int" >       33 </v>
  <v type="int" >       98 </v>
  <v type="int" >       76 </v>
  <v type="int" >       63 </v>
  <v type="int" >       78 </v>
  <v type="int" >       79 </v>
  <v type="int" >       14 </v>
  <v type="int" >       55 </v>
  <v type="int" >       92 </v>
  <v type="int" >      100 </v>
  <v type="int" >       50 </v>
  <v type="int" >       18 </v>
  <v type="int" >       52 </v>
  <v type="int" >       69 </v>
 </varray>
 <kpoints>
  <generation param="Gamma">
   <v type="int" name="divisions">       1        1        1 </v>
   <v name="usershift">      0.00000000       0.00000000       0.00000000 </v>
   <v name="genvec1">      1.00000000       0.00000000       0.00000000 </v>
   <v name="genvec2">      0.00000000       1.00000000       0.00000000 </v>
   <v name="genvec3">      0.00000000       0.00000000       1.00000000 </v>
   <v name="shift">      0.00000000       0.00000000       0.00000000 </v>
  </generation>
  <varray name="kpointlist" >
   <v>       0.00000000       0.00000000       0.00000000 </v>
  </varray>
  <varray name="weights" >
   <v>       1.00000000 </v>
  </varray>
 </kpoints>
 <parameters>
  <separator name="general" >
   <i type="string" name="SYSTEM">unknown system</i>
   <i type="logical" name="LCOMPAT"> F  </i>
  </separator>
  <separator name="electronic" >
   <i type="string" name="PREC">normal</i>
   <i name="ENMAX">    245.34500000</i>
   <i name="ENAUG">    322.06900000</i>
   <i name="EDIFF">      0.00001000</i>
   <i type="int" name="IALGO">    48</i>
   <i type="int" name="IWAVPR">    10</i>
   <i type="int" name="NBANDS">   304</i>
   <i name="NELECT">    400.00000000</i>
   <i type="int" name="TURBO">     0</i>
   <i type="int" name="IRESTART">     0</i>
   <i type="int" name="NREBOOT">     0</i>
   <i type="int" name="NMIN">     0</i>
   <i name="EREF">      0.00000000</i>
   <separator name="electronic smearing" >
    <i type="int" name="ISMEAR">     0</i>
    <i name="SIGMA">      0.05000000</i>
    <i name="KSPACING">      0.50000000</i>
    <i type="logical" name="KGAMMA"> T  </i>
   </separator>
   <separator name="electronic projectors" >
    <i type="logical" name="LREAL"> T  </i>
    <v name="ROPT">     -0.00050000</v>
    <i type="int" name="LMAXPAW">  -100</i>
    <i type="int" name="LMAXMIX">     2</i>
    <i type="logical" name="NLSPLINE"> F  </i>
   </separator>
   <separator name="electronic startup" >
    <i type="int" name="ISTART">     0</i>
    <i type="int" name="ICHARG">     2</i>
    <i type="int" name="INIWAV">     1</i>
   </separator>
   <separator name="electronic spin" >
    <i type="int" name="ISPIN">     2</i>
    <i type="logical" name="LNONCOLLINEAR"> F  </i>
    <v name="MAGMOM">      1.00000000      1.00000000      1.00000000      1.00000000      1.00000000      1.00000000      1.00000000      1.00000000      1.00000000      1.00000000      1.00000000      1.00000000      1.00000000      1.00000000      1.00000000      1.00000000      1.00000000      1.00000000      1.00000000      1.00000000
      1.00000000      1.00000000      1.00000000      1.00000000      1.00000000      1.00000000      1.00000000      1.00000000      1.00000000      1.00000000      1.00000000      1.00000000      1.00000000      1.00000000      1.00000000      1.00000000      1.00000000      1.00000000      1.00000000      1.00000000
      1.00000000      1.00000000      1.00000000      1.00000000      1.00000000      1.00000000      1.00000000      1.00000000      1.00000000      1.00000000      1.00000000      1.00000000      1.00000000      1.00000000      1.00000000      1.00000000      1.00000000      1.00000000      1.00000000      1.00000000
      1.00000000      1.00000000      1.00000000      1.00000000      1.00000000      1.00000000      1.00000000      1.00000000      1.00000000      1.00000000      1.00000000      1.00000000      1.00000000      1.00000000      1.00000000      1.00000000      1.00000000      1.00000000      1.00000000      1.00000000
      1.00000000      1.00000000      1.00000000      1.00000000      1.00000000      1.00000000      1.00000000      1.00000000      1.00000000      1.00000000      1.00000000      1.00000000      1.00000000      1.00000000      1.00000000      1.00000000      1.00000000      1.00000000      1.00000000      1.00000000
</v>
    <i name="NUPDOWN">     -1.00000000</i>
    <i type="logical" name="LSORBIT"> F  </i>
    <v name="SAXIS">      0.00000000      0.00000000      1.00000000</v>
    <i type="logical" name="LSPIRAL"> F  </i>
    <v name="QSPIRAL">      0.00000000      0.00000000      0.00000000</v>
    <i type="logical" name="LZEROZ"> F  </i>
   </separator>
   <separator name="electronic exchange-correlation" >
    <i type="logical" name="LASPH"> F  </i>
    <i type="logical" name="LMETAGGA"> F  </i>
   </separator>
   <separator name="electronic convergence" >
    <i type="int" name="NELM">    60</i>
    <i type="int" name="NELMDL">   -12</i>
    <i type="int" name="NELMIN">     4</i>
    <i name="ENINI">    245.34500000</i>
    <separator name="electronic convergence detail" >
     <i type="logical" name="LDIAG"> T  </i>
     <i type="logical" name="LSUBROT"> F  </i>
     <i name="WEIMIN">      0.00000000</i>
     <i name="EBREAK">      0.00000001</i>
     <i name="DEPER">      0.30000000</i>
     <i type="int" name="NRMM">     4</i>
     <i name="TIME">      0.40000000</i>
    </separator>
   </separator>
   <separator name="electronic mixer" >
    <i name="AMIX">      0.40000000</i>
    <i name="BMIX">      1.00000000</i>
    <i name="AMIN">      0.10000000</i>
    <i name="AMIX_MAG">      1.60000000</i>
    <i name="BMIX_MAG">      1.00000000</i>
    <separator name="electronic mixer details" >
     <i type="int" name="IMIX">     4</i>
     <i type="logical" name="MIXFIRST"> F  </i>
     <i type="int" name="MAXMIX">   -45</i>
     <i name="WC">    100.00000000</i>
     <i type="int" name="INIMIX">     1</i>
     <i type="int" name="MIXPRE">     1</i>
     <i type="int" name="MREMOVE">     5</i>
    </separator>
   </separator>
   <separator name="electronic dipolcorrection" >
    <i type="logical" name="LDIPOL"> F  </i>
    <i type="logical" name="LMONO"> F  </i>
    <i type="int" name="IDIPOL">     0</i>
    <i name="EPSILON">      1.00000000</i>
    <v name="DIPOL">   -100.00000000   -100.00000000   -100.00000000</v>
    <i name="EFIELD">      0.00000000</i>
   </separator>
  </separator>
  <separator name="grids" >
   <i type="int" name="NGX">    40</i>
   <i type="int" name="NGY">    40</i>
   <i type="int" name="NGZ">    40</i>
   <i type="int" name="NGXF">    80</i>
   <i type="int" name="NGYF">    80</i>
   <i type="int" name="NGZF">    80</i>
   <i type="logical" name="ADDGRID"> F  </i>
  </separator>
  <separator name="ionic" >
   <i type="int" name="NSW">     0</i>
   <i type="int" name="IBRION">    -1</i>
   <i type="int" name="MDALGO">     0</i>
   <i type="int" name="ISIF">     2</i>
   <i name="PSTRESS">      0.00000000</i>
   <i name="EDIFFG">      0.00010000</i>
   <i type="int" name="NFREE">     0</i>
   <i name="POTIM">      0.50000000</i>
   <i name="SMASS">     -3.00000000</i>
   <i name="SCALEE">      1.00000000</i>
  </separator>
  <separator name="ionic md" >
   <i name="TEBEG">      0.00010000</i>
   <i name="TEEND">      0.00010000</i>
   <i type="int" name="NBLOCK">     1</i>
   <i type="int" name="KBLOCK">     1</i>
   <i type="int" name="NPACO">   256</i>
   <i name="APACO">     16.00000000</i>
  </separator>
  <separator name="symmetry" >
   <i type="int" name="ISYM">     0</i>
   <i name="SYMPREC">      0.00001000</i>
  </separator>
  <separator name="dos" >
   <i type="int" name="LORBIT">     0</i>
   <v name="RWIGS">     -1.00000000</v>
   <i type="int" name="NEDOS">   301</i>
   <i name="EMIN">     10.00000000</i>
   <i name="EMAX">    -10.00000000</i>
   <i name="EFERMI">      0.00000000</i>
  </separator>
  <separator name="writing" >
   <i type="int" name="NWRITE">     2</i>
   <i type="logical" name="LWAVE"> F  </i>
   <i type="logical" name="LDOWNSAMPLE"> F  </i>
   <i type="logical" name="LCHARG"> F  </i>
   <i type="logical" name="LPARD"> F  </i>
   <i type="logical" name="LVTOT"> F  </i>
   <i type="logical" name="LVHAR"> F  </i>
   <i type="logical" name="LELF"> F  </i>
   <i type="logical" name="LOPTICS"> F  </i>
   <v name="STM">      0.00000000      0.00000000      0.00000000      0.00000000      0.00000000      0.00000000      0.00000000</v>
  </separator>
  <separator name="performance" >
   <i type="int" name="NPAR">    16</i>
   <i type="int" name="NSIM">     4</i>
   <i type="int" name="NBLK">    -1</i>
   <i type="logical" name="LPLANE"> T  </i>
   <i type="logical" name="LSCALAPACK"> T  </i>
   <i type="logical" name="LSCAAWARE"> F  </i>
   <i type="logical" name="LSCALU"> F  </i>
   <i type="logical" name="LASYNC"> F  </i>
   <i type="logical" name="LORBITALREAL"> F  </i>
  </separator>
  <separator name="miscellaneous" >
   <i type="int" name="IDIOT">     3</i>
   <i type="int" name="ISPECIAL">     0</i>
   <i type="logical" name="LMUSIC"> F  </i>
   <v name="POMASS">     28.08500000</v>
   <v name="DARWINR">      0.00000000</v>
   <v name="DARWINV">      1.00000000</v>
   <i type="logical" name="LCORR"> T  </i>
  </separator>
  <i type="logical" name="GGA_COMPAT"> T  </i>
  <i type="logical" name="LBERRY"> F  </i>
  <i type="int" name="ICORELEVEL">     0</i>
  <i type="logical" name="LDAU"> F  </i>
  <i type="int" name="I_CONSTRAINED_M">     0</i>
  <separator name="electronic exchange-correlation" >
   <i type="string" name="GGA">--</i>
   <i type="int" name="VOSKOWN">     0</i>
   <i type="logical" name="LHFCALC"> F  </i>
   <i type="string" name="PRECFOCK"></i>
   <i type="logical" name="LSYMGRAD"> F  </i>
   <i type="logical" name="LHFONE"> F  </i>
   <i type="logical" name="LRHFCALC"> F  </i>
   <i type="logical" name="LTHOMAS"> F  </i>
   <i type="logical" name="LMODELHF"> F  </i>
   <i name="ENCUT4O">     -1.00000000</i>
   <i type="int" name="EXXOEP">     0</i>
   <i type="int" name="FOURORBIT">     0</i>
   <i name="AEXX">      0.00000000</i>
   <i name="HFALPHA">      0.00000000</i>
   <i name="MCALPHA">      0.00000000</i>
   <i name="ALDAX">      1.00000000</i>
   <i name="AGGAX">      1.00000000</i>
   <i name="ALDAC">      1.00000000</i>
   <i name="AGGAC">      1.00000000</i>
   <i type="int" name="NKREDX">     1</i>
   <i type="int" name="NKREDY">     1</i>
   <i type="int" name="NKREDZ">     1</i>
   <i type="logical" name="SHIFTRED"> F  </i>
   <i type="logical" name="ODDONLY"> F  </i>
   <i type="logical" name="EVENONLY"> F  </i>
   <i type="int" name="LMAXFOCK">     0</i>
   <i type="int" name="NMAXFOCKAE">     0</i>
   <i type="logical" name="LFOCKAEDFT"> F  </i>
   <i name="HFSCREEN">      0.00000000</i>
   <i name="HFSCREENC">      0.00000000</i>
   <i type="int" name="NBANDSGWLOW">     0</i>
  </separator>
  <separator name="vdW DFT" >
   <i type="logical" name="LUSE_VDW"> F  </i>
   <i name="Zab_VDW">     -0.84910000</i>
   <i name="PARAM1">      0.12340000</i>
   <i name="PARAM2">      1.00000000</i>
   <i name="PARAM3">      0.00000000</i>
  </separator>
  <separator name="model GW" >
   <i type="int" name="MODEL_GW">     0</i>
   <i name="MODEL_EPS0">      6.38879919</i>
   <i name="MODEL_ALPHA">      1.00000000</i>
  </separator>
  <separator name="linear response parameters" >
   <i type="logical" name="LEPSILON"> F  </i>
   <i type="logical" name="LRPA"> F  </i>
   <i type="logical" name="LNABLA"> F  </i>
   <i type="logical" name="LVEL"> F  </i>
   <i type="int" name="KINTER">     0</i>
   <i name="CSHIFT">      0.10000000</i>
   <i name="OMEGAMAX">     -1.00000000</i>
   <i name="DEG_THRESHOLD">      0.00200000</i>
   <i name="RTIME">     -0.10000000</i>
   <i name="WPLASMAI">      0.00000000</i>
   <v name="DFIELD">      0.00000000      0.00000000      0.00000000</v>
   <v name="WPLASMA">      0.00000000      0.00000000      0.00000000      0.00000000      0.00000000      0.00000000      0.00000000      0.00000000      0.00000000</v>
  </separator>
  <separator name="orbital magnetization" >
   <i type="logical" name="NUCIND"> F  </i>
   <v name="MAGPOS">      0.00000000      0.00000000      0.00000000</v>
   <i type="logical" name="LNICSALL"> T  </i>
   <i type="logical" name="ORBITALMAG"> F  </i>
   <i type="logical" name="LMAGBLOCH"> F  </i>
   <i type="logical" name="LCHIMAG"> F  </i>
   <i type="logical" name="LGAUGE"> T  </i>
   <i type="int" name="MAGATOM">     0</i>
   <v name="MAGDIPOL">      0.00000000      0.00000000      0.00000000</v>
   <v name="AVECCONST">      0.00000000      0.00000000      0.00000000</v>
  </separator>
  <separator name="response functions" >
   <i type="logical" name="LADDER"> F  </i>
   <i type="logical" name="LRPAFORCE"> F  </i>
   <i type="logical" name="LFXC"> F  </i>
   <i type="logical" name="LHARTREE"> T  </i>
   <i type="int" name="IBSE">     0</i>
   <v type="int" name="KPOINT">    -1     0     0     0</v>
   <i type="logical" name="LTCTE"> F  </i>
   <i type="logical" name="LTETE"> F  </i>
   <i type="logical" name="LTRIPLET"> F  </i>
   <i type="logical" name="LFXCEPS"> F  </i>
   <i type="logical" name="LFXHEG"> F  </i>
   <i type="int" name="NATURALO">     2</i>
   <i type="logical" name="L2ORDER"> F  </i>
   <i type="logical" name="LMP2LT"> F  </i>
   <i type="logical" name="LUSEW"> F  </i>
   <i name="ENCUTGW">     -2.00000000</i>
   <i name="ENCUTGWSOFT">     -2.00000000</i>
   <i name="ENCUTLF">     -1.00000000</i>
   <i type="int" name="LMAXMP2">    -1</i>
   <i name="SCISSOR">      0.00000000</i>
   <i type="int" name="NOMEGA">     0</i>
   <i type="int" name="NOMEGAR">     0</i>
   <i type="int" name="NBANDSGW">    -1</i>
   <i type="int" name="NBANDSO">    -1</i>
   <i type="int" name="NBANDSV">    -1</i>
   <i type="int" name="NELM">    60</i>
   <i type="int" name="NELMHF">     1</i>
   <i type="int" name="DIM">     3</i>
   <i type="int" name="ANTIRES">     0</i>
   <i name="OMEGAMAX">    -30.00000000</i>
   <i name="OMEGAMIN">    -30.00000000</i>
   <i name="OMEGATL">   -200.00000000</i>
   <i type="int" name="OMEGAGRID">   140</i>
   <i name="CSHIFT">     -0.10000000</i>
   <i type="logical" name="SELFENERGY"> F  </i>
   <i type="logical" name="LSPECTRAL"> F  </i>
   <i type="logical" name="LSPECTRALGW"> F  </i>
   <i type="logical" name="LSINGLES"> F  </i>
   <i type="logical" name="LFERMIGW"> F  </i>
   <i type="logical" name="ODDONLYGW"> F  </i>
   <i type="logical" name="EVENONLYGW"> F  </i>
   <i type="int" name="NKREDLFX">     1</i>
   <i type="int" name="NKREDLFY">     1</i>
   <i type="int" name="NKREDLFZ">     1</i>
   <i type="int" name="MAXMEM">  2800</i>
   <i type="int" name="TELESCOPE">     0</i>
   <i type="int" name="TAUPAR">     1</i>
   <i type="int" name="OMEGAPAR">    -1</i>
   <i name="LAMBDA">      1.00000000</i>
  </separator>
  <separator name="External order field" >
   <i name="OFIELD_KAPPA">      0.00000000</i>
   <v name="OFIELD_K">      0.00000000      0.00000000      0.00000000</v>
   <i name="OFIELD_Q6_NEAR">      0.00000000</i>
   <i name="OFIELD_Q6_FAR">      0.00000000</i>
   <i name="OFIELD_A">      0.00000000</i>
  </separator>
 </parameters>
 <atominfo>
  <atoms>     100 </atoms>
  <types>       1 </types>
  <array name="atoms" >
   <dimension dim="1">ion</dimension>
   <field type="string">element</field>
   <field type="int">atomtype</field>
   <set>
    <rc><c>Si</c><c>   1</c></rc>
    <rc><c>Si</c><c>   1</c></rc>
    <rc><c>Si</c><c>   1</c></rc>
    <rc><c>Si</c><c>   1</c></rc>
    <rc><c>Si</c><c>   1</c></rc>
    <rc><c>Si</c><c>   1</c></rc>
    <rc><c>Si</c><c>   1</c></rc>
    <rc><c>Si</c><c>   1</c></rc>
    <rc><c>Si</c><c>   1</c></rc>
    <rc><c>Si</c><c>   1</c></rc>
    <rc><c>Si</c><c>   1</c></rc>
    <rc><c>Si</c><c>   1</c></rc>
    <rc><c>Si</c><c>   1</c></rc>
    <rc><c>Si</c><c>   1</c></rc>
    <rc><c>Si</c><c>   1</c></rc>
    <rc><c>Si</c><c>   1</c></rc>
    <rc><c>Si</c><c>   1</c></rc>
    <rc><c>Si</c><c>   1</c></rc>
    <rc><c>Si</c><c>   1</c></rc>
    <rc><c>Si</c><c>   1</c></rc>
    <rc><c>Si</c><c>   1</c></rc>
    <rc><c>Si</c><c>   1</c></rc>
    <rc><c>Si</c><c>   1</c></rc>
    <rc><c>Si</c><c>   1</c></rc>
    <rc><c>Si</c><c>   1</c></rc>
    <rc><c>Si</c><c>   1</c></rc>
    <rc><c>Si</c><c>   1</c></rc>
    <rc><c>Si</c><c>   1</c></rc>
    <rc><c>Si</c><c>   1</c></rc>
    <rc><c>Si</c><c>   1</c></rc>
    <rc><c>Si</c><c>   1</c></rc>
    <rc><c>Si</c><c>   1</c></rc>
    <rc><c>Si</c><c>   1</c></rc>
    <rc><c>Si</c><c>   1</c></rc>
    <rc><c>Si</c><c>   1</c></rc>
    <rc><c>Si</c><c>   1</c></rc>
    <rc><c>Si</c><c>   1</c></rc>
    <rc><c>Si</c><c>   1</c></rc>
    <rc><c>Si</c><c>   1</c></rc>
    <rc><c>Si</c><c>   1</c></rc>
    <rc><c>Si</c><c>   1</c></rc>
    <rc><c>Si</c><c>   1</c></rc>
    <rc><c>Si</c><c>   1</c></rc>
    <rc><c>Si</c><c>   1</c></rc>
    <rc><c>Si</c><c>   1</c></rc>
    <rc><c>Si</c><c>   1</c></rc>
    <rc><c>Si</c><c>   1</c></rc>
    <rc><c>Si</c><c>   1</c></rc>
    <rc><c>Si</c><c>   1</c></rc>
    <rc><c>Si</c><c>   1</c></rc>
    <rc><c>Si</c><c>   1</c></rc>
    <rc><c>Si</c><c>   1</c></rc>
    <rc><c>Si</c><c>   1</c></rc>
    <rc><c>Si</c><c>   1</c></rc>
    <rc><c>Si</c><c>   1</c></rc>
    <rc><c>Si</c><c>   1</c></rc>
    <rc><c>Si</c><c>   1</c></rc>
    <rc><c>Si</c><c>   1</c></rc>
    <rc><c>Si</c><c>   1</c></rc>
    <rc><c>Si</c><c>   1</c></rc>
    <rc><c>Si</c><c>   1</c></rc>
    <rc><c>Si</c><c>   1</c></rc>
    <rc><c>Si</c><c>   1</c></rc>
    <rc><c>Si</c><c>   1</c></rc>
    <rc><c>Si</c><c>   1</c></rc>
    <rc><c>Si</c><c>   1</c></rc>
    <rc><c>Si</c><c>   1</c></rc>
    <rc><c>Si</c><c>   1</c></rc>
    <rc><c>Si</c><c>   1</c></rc>
    <rc><c>Si</c><c>   1</c></rc>
    <rc><c>Si</c><c>   1</c></rc>
    <rc><c>Si</c><c>   1</c></rc>
    <rc><c>Si</c><c>   1</c></rc>
    <rc><c>Si</c><c>   1</c></rc>
    <rc><c>Si</c><c>   1</c></rc>
    <rc><c>Si</c><c>   1</c></rc>
    <rc><c>Si</c><c>   1</c></rc>
    <rc><c>Si</c><c>   1</c></rc>
    <rc><c>Si</c><c>   1</c></rc>
    <rc><c>Si</c><c>   1</c></rc>
    <rc><c>Si</c><c>   1</c></rc>
    <rc><c>Si</c><c>   1</c></rc>
    <rc><c>Si</c><c>   1</c></rc>
    <rc><c>Si</c><c>   1</c></rc>
    <rc><c>Si</c><c>   1</c></rc>
    <rc><c>Si</c><c>   1</c></rc>
    <rc><c>Si</c><c>   1</c></rc>
    <rc><c>Si</c><c>   1</c></rc>
    <rc><c>Si</c><c>   1</c></rc>
    <rc><c>Si</c><c>   1</c></rc>
    <rc><c>Si</c><c>   1</c></rc>
    <rc><c>Si</c><c>   1</c></rc>
    <rc><c>Si</c><c>   1</c></rc>
    <rc><c>Si</c><c>   1</c></rc>
    <rc><c>Si</c><c>   1</c></rc>
    <rc><c>Si</c><c>   1</c></rc>
    <rc><c>Si</c><c>   1</c></rc>
    <rc><c>Si</c><c>   1</c></rc>
    <rc><c>Si</c><c>   1</c></rc>
    <rc><c>Si</c><c>   1</c></rc>
   </set>
  </array>
  <array name="atomtypes" >
   <dimension dim="1">type</dimension>
   <field type="int">atomspertype</field>
   <field type="string">element</field>
   <field>mass</field>
   <field>valence</field>
   <field type="string">pseudopotential</field>
   <set>
    <rc><c> 100</c><c>Si</c><c>     28.08500000</c><c>      4.00000000</c><c>  PAW_PBE Si 05Jan2001                  </c></rc>
   </set>
  </array>
 </atominfo>
 <structure name="initialpos" >
  <crystal>
   <varray name="basis" >
    <v>      10.21149500       0.00000000       0.00000000 </v>
    <v>       0.00000000      10.21149500       0.00000000 </v>
    <v>       0.00000000       0.00000000      10.21149500 </v>
   </varray>
   <i name="volume">   1064.79986425 </i>
   <varray name="rec_basis" >
    <v>       0.09792885       0.00000000       0.00000000 </v>
    <v>       0.00000000       0.09792885       0.00000000 </v>
    <v>       0.00000000       0.00000000       0.09792885 </v>
   </varray>
  </crystal>
  <varray name="positions" >
   <v>       0.11405100       0.07955640       0.92828600 </v>
   <v>       0.42432400       0.43410200       0.16536500 </v>
   <v>       0.32642600       0.30269400       0.96011600 </v>
   <v>       0.88855700       0.36333700       0.11508000 </v>
   <v>       0.49309400       0.98261500       0.71411600 </v>
   <v>       0.62015300       0.02921240       0.23642800 </v>
   <v>       0.80613400       0.43153600       0.67736600 </v>
   <v>       0.25614200       0.40914100       0.45384600 </v>
   <v>       0.34447800       0.93780200       0.25588300 </v>
   <v>       0.73349100       0.01102160       0.74640300 </v>
   <v>       0.82347400       0.04509730       0.54473600 </v>
   <v>       0.18401200       0.22019200       0.79763600 </v>
   <v>       0.92759400       0.12534700       0.80691000 </v>
   <v>       0.61781400       0.39986200       0.25401400 </v>
   <v>       0.06975700       0.46850700       0.31520700 </v>
   <v>       0.27030700       0.92174200       0.04258020 </v>
   <v>       0.99485200       0.25357600       0.30614600 </v>
   <v>       0.46454100       0.54211700       0.35306900 </v>
   <v>       0.22221700       0.71319500       0.00821700 </v>
   <v>       0.68115900       0.81741200       0.14988700 </v>
   <v>       0.82977800       0.74839400       0.75277300 </v>
   <v>       0.43636300       0.95325600       0.51420400 </v>
   <v>       0.87866400       0.91943100       0.90150900 </v>
   <v>       0.41480900       0.73482800       0.17041900 </v>
   <v>       0.77573400       0.19339400       0.25547400 </v>
   <v>       0.94891800       0.53861400       0.97435700 </v>
   <v>       0.93619300       0.04491690       0.33938400 </v>
   <v>       0.33792800       0.21418100       0.57094900 </v>
   <v>       0.42802100       0.23375600       0.78815500 </v>
   <v>       0.67095300       0.85610500       0.58340600 </v>
   <v>       0.39289600       0.76167400       0.70160600 </v>
   <v>       0.26950400       0.13318900       0.09554580 </v>
   <v>       0.32306300       0.58716600       0.58938400 </v>
   <v>       0.59009700       0.35852200       0.72241200 </v>
   <v>       0.24194800       0.04345200       0.46825700 </v>
   <v>       0.02930410       0.92465300       0.73702100 </v>
   <v>       0.43384800       0.10949300       0.36388600 </v>
   <v>       0.89337600       0.84198300       0.54631300 </v>
   <v>       0.20956100       0.37011900       0.15710100 </v>
   <v>       0.68743400       0.96031900       0.97913900 </v>
   <v>       0.00561304       0.48167800       0.53474800 </v>
   <v>       0.16001500       0.41825500       0.67824800 </v>
   <v>       0.23188700       0.21968700       0.32208200 </v>
   <v>       0.05465280       0.33519900       0.96182100 </v>
   <v>       0.44330600       0.77425500       0.91900700 </v>
   <v>       0.54829400       0.37012200       0.95771800 </v>
   <v>       0.08775280       0.61002000       0.13307800 </v>
   <v>       0.64732300       0.17492700       0.85993100 </v>
   <v>       0.18582400       0.77971500       0.24594200 </v>
   <v>       0.58674700       0.60852900       0.17862300 </v>
   <v>       0.20877600       0.62083800       0.77617700 </v>
   <v>       0.69580900       0.66883000       0.34713300 </v>
   <v>       0.23482300       0.85852000       0.82724200 </v>
   <v>       0.86494700       0.73294000       0.00969853 </v>
   <v>       0.62966100       0.02552610       0.45649100 </v>
   <v>       0.89979400       0.28554100       0.51046600 </v>
   <v>       0.34868300       0.44507600       0.78287000 </v>
   <v>       0.98579300       0.80034600       0.21775400 </v>
   <v>       0.21893600       0.81787000       0.58660100 </v>
   <v>       0.84432900       0.96577500       0.17394000 </v>
   <v>       0.64146300       0.66944200       0.98290400 </v>
   <v>       0.62103300       0.80845400       0.79164000 </v>
   <v>       0.92592400       0.64688500       0.39754400 </v>
   <v>       0.04389380       0.90302700       0.03904900 </v>
   <v>       0.36269600       0.74138500       0.39407900 </v>
   <v>       0.12405600       0.24032400       0.49030600 </v>
   <v>       0.14890100       0.02554310       0.24994000 </v>
   <v>       0.81943300       0.42408700       0.32169800 </v>
   <v>       0.65100600       0.46077200       0.49942200 </v>
   <v>       0.04069660       0.68592300       0.60923700 </v>
   <v>       0.86697700       0.11894400       0.02117060 </v>
   <v>       0.99267800       0.53873400       0.76033700 </v>
   <v>       0.99748200       0.30811500       0.71628400 </v>
   <v>       0.03704510       0.18645800       0.11929000 </v>
   <v>       0.18620800       0.47970900       0.95949500 </v>
   <v>       0.16681800       0.64763200       0.44775100 </v>
   <v>       0.38891000       0.04317980       0.90364200 </v>
   <v>       0.52405700       0.57846200       0.75727200 </v>
   <v>       0.77230400       0.64318500       0.54986400 </v>
   <v>       0.74809700       0.55342900       0.83856700 </v>
   <v>       0.85470400       0.60940200       0.18716900 </v>
   <v>       0.77748700       0.85378900       0.36902300 </v>
   <v>       0.76355900       0.21454400       0.67144300 </v>
   <v>       0.56020500       0.15866400       0.64169100 </v>
   <v>       0.46250000       0.20797000       0.14361500 </v>
   <v>       0.66480000       0.22808300       0.08073680 </v>
   <v>       0.49805300       0.96134000       0.07128790 </v>
   <v>       0.09231330       0.89120400       0.42335600 </v>
   <v>       0.05601020       0.07725470       0.60611500 </v>
   <v>       0.70779800       0.47887700       0.05739000 </v>
   <v>       0.26799800       0.05184380       0.72740500 </v>
   <v>       0.66331900       0.25697600       0.44760100 </v>
   <v>       0.27481400       0.59179300       0.24041000 </v>
   <v>       0.40691400       0.57200800       0.97055400 </v>
   <v>       0.43060600       0.32498500       0.38282900 </v>
   <v>       0.03912180       0.73463000       0.87119900 </v>
   <v>       0.82748200       0.33882100       0.90599200 </v>
   <v>       0.54820100       0.84219100       0.33957500 </v>
   <v>       0.43869000       0.42252500       0.56634600 </v>
   <v>       0.53180900       0.67024700       0.52461800 </v>
  </varray>
 </structure>
 <calculation>
  <scstep>
   <time name="diag">    0.35    0.35</time>
   <time name="diis">    0.44    0.44</time>
   <time name="orth">    0.10    0.10</time>
   <time name="total">    0.97    1.06</time>
   <energy>
    <i name="alphaZ">    316.14514549 </i>
    <i name="ewald"> -14892.83741627 </i>
    <i name="hartreedc">    -99.94748387 </i>
    <i name="XCdc">   -777.11693130 </i>
    <i name="pawpsdc">   8803.41707833 </i>
    <i name="pawaedc">  -7043.47671478 </i>
    <i name="eentropy">     -0.00753661 </i>
    <i name="bandstr">   4784.61201330 </i>
    <i name="atom">  10306.12861560 </i>
    <i name="e_fr_energy">   1396.91676989 </i>
    <i name="e_wo_entrp">   1396.92430651 </i>
    <i name="e_0_energy">   1396.92053820 </i>
   </energy>
  </scstep>
  <scstep>
   <time name="diag">    0.34    0.34</time>
   <time name="diis">    0.44    0.44</time>
   <time name="orth">    0.10    0.10</time>
   <time name="total">    0.88    0.88</time>
   <energy>
    <i name="e_fr_energy">     19.00823209 </i>
    <i name="e_wo_entrp">     19.05695539 </i>
    <i name="e_0_energy">     19.03259374 </i>
   </energy>
  </scstep>
  <scstep>
   <time name="diag">    0.34    0.34</time>
   <time name="diis">    0.44    0.44</time>
   <time name="orth">    0.10    0.10</time>
   <time name="total">    0.88    0.88</time>
   <energy>
    <i name="e_fr_energy">   -271.49843084 </i>
    <i name="e_wo_entrp">   -271.49074037 </i>
    <i name="e_0_energy">   -271.49458561 </i>
   </energy>
  </scstep>
  <scstep>
   <time name="diag">    0.34    0.34</time>
   <time name="diis">    0.44    0.45</time>
   <time name="orth">    0.10    0.10</time>
   <time name="total">    0.88    0.88</time>
   <energy>
    <i name="e_fr_energy">   -352.25175316 </i>
    <i name="e_wo_entrp">   -352.21083731 </i>
    <i name="e_0_energy">   -352.23129523 </i>
   </energy>
  </scstep>
  <scstep>
   <time name="diag">    0.34    0.34</time>
   <time name="diis">    0.44    0.44</time>
   <time name="orth">    0.10    0.10</time>
   <time name="total">    0.87    0.88</time>
   <energy>
    <i name="e_fr_energy">   -378.21450540 </i>
    <i name="e_wo_entrp">   -378.16706594 </i>
    <i name="e_0_energy">   -378.19078567 </i>
   </energy>
  </scstep>
  <scstep>
   <time name="diag">    0.34    0.34</time>
   <time name="diis">    0.44    0.45</time>
   <time name="orth">    0.10    0.10</time>
   <time name="total">    0.88    0.88</time>
   <energy>
    <i name="e_fr_energy">   -387.69803394 </i>
    <i name="e_wo_entrp">   -387.64691717 </i>
    <i name="e_0_energy">   -387.67247555 </i>
   </energy>
  </scstep>
  <scstep>
   <time name="diag">    0.34    0.34</time>
   <time name="diis">    0.44    0.44</time>
   <time name="orth">    0.10    0.10</time>
   <time name="total">    0.87    0.88</time>
   <energy>
    <i name="e_fr_energy">   -391.19898694 </i>
    <i name="e_wo_entrp">   -391.15283517 </i>
    <i name="e_0_energy">   -391.17591105 </i>
   </energy>
  </scstep>
  <scstep>
   <time name="diag">    0.34    0.34</time>
   <time name="diis">    0.44    0.45</time>
   <time name="orth">    0.10    0.10</time>
   <time name="total">    0.88    0.89</time>
   <energy>
    <i name="e_fr_energy">   -392.60303614 </i>
    <i name="e_wo_entrp">   -392.55026301 </i>
    <i name="e_0_energy">   -392.57664958 </i>
   </energy>
  </scstep>
  <scstep>
   <time name="diag">    0.34    0.34</time>
   <time name="diis">    0.99    1.01</time>
   <time name="orth">    0.10    0.10</time>
   <time name="total">    1.43    1.44</time>
   <energy>
    <i name="e_fr_energy">   -393.41604888 </i>
    <i name="e_wo_entrp">   -393.36792132 </i>
    <i name="e_0_energy">   -393.39198510 </i>
   </energy>
  </scstep>
  <scstep>
   <time name="diag">    0.34    0.34</time>
   <time name="diis">    0.96    0.98</time>
   <time name="orth">    0.10    0.10</time>
   <time name="total">    1.40    1.41</time>
   <energy>
    <i name="e_fr_energy">   -393.50508894 </i>
    <i name="e_wo_entrp">   -393.45657734 </i>
    <i name="e_0_energy">   -393.48083314 </i>
   </energy>
  </scstep>
  <scstep>
   <time name="diag">    0.34    0.34</time>
   <time name="diis">    0.91    0.92</time>
   <time name="orth">    0.10    0.10</time>
   <time name="total">    1.34    1.36</time>
   <energy>
    <i name="e_fr_energy">   -393.50701298 </i>
    <i name="e_wo_entrp">   -393.45848160 </i>
    <i name="e_0_energy">   -393.48274729 </i>
   </energy>
  </scstep>
  <scstep>
   <time name="diag">    0.34    0.34</time>
   <time name="diis">    0.77    0.78</time>
   <time name="orth">    0.10    0.10</time>
   <time name="total">    1.25    1.27</time>
   <energy>
    <i name="e_fr_energy">   -393.50702717 </i>
    <i name="e_wo_entrp">   -393.45849578 </i>
    <i name="e_0_energy">   -393.48276148 </i>
   </energy>
  </scstep>
  <scstep>
   <time name="diag">    0.34    0.34</time>
   <time name="diis">    0.89    0.90</time>
   <time name="orth">    0.10    0.10</time>
   <time name="total">    1.46    1.47</time>
   <energy>
    <i name="e_fr_energy">   -398.14381803 </i>
    <i name="e_wo_entrp">   -398.09563390 </i>
    <i name="e_0_energy">   -398.11972597 </i>
   </energy>
  </scstep>
  <scstep>
   <time name="diag">    0.34    0.34</time>
   <time name="diis">    0.90    0.91</time>
   <time name="orth">    0.10    0.10</time>
   <time name="total">    1.47    1.49</time>
   <energy>
    <i name="e_fr_energy">   -405.66716256 </i>
    <i name="e_wo_entrp">   -405.60595705 </i>
    <i name="e_0_energy">   -405.63655981 </i>
   </energy>
  </scstep>
  <scstep>
   <time name="diag">    0.34    0.34</time>
   <time name="diis">    0.92    0.93</time>
   <time name="orth">    0.10    0.10</time>
   <time name="total">    1.49    1.50</time>
   <energy>
    <i name="e_fr_energy">   -406.44235323 </i>
    <i name="e_wo_entrp">   -406.38416883 </i>
    <i name="e_0_energy">   -406.41326103 </i>
   </energy>
  </scstep>
  <scstep>
   <time name="diag">    0.34    0.34</time>
   <time name="diis">    0.92    0.93</time>
   <time name="orth">    0.10    0.10</time>
   <time name="total">    1.49    1.51</time>
   <energy>
    <i name="e_fr_energy">   -406.59644721 </i>
    <i name="e_wo_entrp">   -406.53690449 </i>
    <i name="e_0_energy">   -406.56667585 </i>
   </energy>
  </scstep>
  <scstep>
   <time name="diag">    0.34    0.34</time>
   <time name="diis">    0.93    0.94</time>
   <time name="orth">    0.10    0.10</time>
   <time name="total">    1.50    1.51</time>
   <energy>
    <i name="e_fr_energy">   -406.69589286 </i>
    <i name="e_wo_entrp">   -406.63903324 </i>
    <i name="e_0_energy">   -406.66746305 </i>
   </energy>
  </scstep>
  <scstep>
   <time name="diag">    0.34    0.34</time>
   <time name="diis">    0.93    0.94</time>
   <time name="orth">    0.10    0.10</time>
   <time name="total">    1.49    1.51</time>
   <energy>
    <i name="e_fr_energy">   -406.73973332 </i>
    <i name="e_wo_entrp">   -406.68278782 </i>
    <i name="e_0_energy">   -406.71126057 </i>
   </energy>
  </scstep>
  <scstep>
   <time name="diag">    0.34    0.34</time>
   <time name="diis">    0.93    0.94</time>
   <time name="orth">    0.10    0.10</time>
   <time name="total">    1.50    1.51</time>
   <energy>
    <i name="e_fr_energy">   -406.74936733 </i>
    <i name="e_wo_entrp">   -406.68605593 </i>
    <i name="e_0_energy">   -406.71771163 </i>
   </energy>
  </scstep>
  <scstep>
   <time name="diag">    0.34    0.34</time>
   <time name="diis">    0.95    0.96</time>
   <time name="orth">    0.10    0.10</time>
   <time name="total">    1.52    1.53</time>
   <energy>
    <i name="e_fr_energy">   -406.75204511 </i>
    <i name="e_wo_entrp">   -406.68358324 </i>
    <i name="e_0_energy">   -406.71781418 </i>
   </energy>
  </scstep>
  <scstep>
   <time name="diag">    0.34    0.34</time>
   <time name="diis">    0.96    0.97</time>
   <time name="orth">    0.10    0.10</time>
   <time name="total">    1.53    1.54</time>
   <energy>
    <i name="e_fr_energy">   -406.75303038 </i>
    <i name="e_wo_entrp">   -406.68182055 </i>
    <i name="e_0_energy">   -406.71742547 </i>
   </energy>
  </scstep>
  <scstep>
   <time name="diag">    0.34    0.34</time>
   <time name="diis">    0.93    0.94</time>
   <time name="orth">    0.10    0.10</time>
   <time name="total">    1.50    1.51</time>
   <energy>
    <i name="e_fr_energy">   -406.75353942 </i>
    <i name="e_wo_entrp">   -406.68081141 </i>
    <i name="e_0_energy">   -406.71717542 </i>
   </energy>
  </scstep>
  <scstep>
   <time name="diag">    0.34    0.34</time>
   <time name="diis">    0.91    0.93</time>
   <time name="orth">    0.10    0.10</time>
   <time name="total">    1.48    1.50</time>
   <energy>
    <i name="e_fr_energy">   -406.75391982 </i>
    <i name="e_wo_entrp">   -406.67982198 </i>
    <i name="e_0_energy">   -406.71687090 </i>
   </energy>
  </scstep>
  <scstep>
   <time name="diag">    0.34    0.34</time>
   <time name="diis">    0.93    0.95</time>
   <time name="orth">    0.10    0.10</time>
   <time name="total">    1.50    1.52</time>
   <energy>
    <i name="e_fr_energy">   -406.75410557 </i>
    <i name="e_wo_entrp">   -406.67935407 </i>
    <i name="e_0_energy">   -406.71672982 </i>
   </energy>
  </scstep>
  <scstep>
   <time name="diag">    0.33    0.34</time>
   <time name="diis">    0.92    0.94</time>
   <time name="orth">    0.10    0.10</time>
   <time name="total">    1.49    1.51</time>
   <energy>
    <i name="e_fr_energy">   -406.75417516 </i>
    <i name="e_wo_entrp">   -406.67912009 </i>
    <i name="e_0_energy">   -406.71664762 </i>
   </energy>
  </scstep>
  <scstep>
   <time name="diag">    0.34    0.34</time>
   <time name="diis">    0.96    0.97</time>
   <time name="orth">    0.10    0.10</time>
   <time name="total">    1.53    1.54</time>
   <energy>
    <i name="e_fr_energy">   -406.75419460 </i>
    <i name="e_wo_entrp">   -406.67909468 </i>
    <i name="e_0_energy">   -406.71664464 </i>
   </energy>
  </scstep>
  <scstep>
   <time name="diag">    0.34    0.34</time>
   <time name="diis">    0.73    0.74</time>
   <time name="orth">    0.10    0.10</time>
   <time name="total">    1.25    1.27</time>
   <energy>
    <i name="alphaZ">    316.14514549 </i>
    <i name="ewald"> -14892.83741627 </i>
    <i name="hartreedc">   -143.44731562 </i>
    <i name="XCdc">   -767.83632390 </i>
    <i name="pawpsdc">  89999.30959209 </i>
    <i name="pawaedc"> -88255.96885367 </i>
    <i name="eentropy">     -0.07512572 </i>
    <i name="bandstr">   3031.82748211 </i>
    <i name="atom">  10306.12861560 </i>
    <i name="e_fr_energy">   -406.75419991 </i>
    <i name="e_wo_entrp">   -406.67907418 </i>
    <i name="e_0_energy">   -406.71663705 </i>
   </energy>
  </scstep>
  <structure>
   <crystal>
    <varray name="basis" >
     <v>      10.21149500       0.00000000       0.00000000 </v>
     <v>       0.00000000      10.21149500       0.00000000 </v>
     <v>       0.00000000       0.00000000      10.21149500 </v>
    </varray>
    <i name="volume">   1064.79986425 </i>
    <varray name="rec_basis" >
     <v>       0.09792885       0.00000000       0.00000000 </v>
     <v>       0.00000000       0.09792885       0.00000000 </v>
     <v>       0.00000000       0.00000000       0.09792885 </v>
    </varray>
   </crystal>
   <varray name="positions" >
    <v>       0.11405100       0.07955640       0.92828600 </v>
    <v>       0.42432400       0.43410200       0.16536500 </v>
    <v>       0.32642600       0.30269400       0.96011600 </v>
    <v>       0.88855700       0.36333700       0.11508000 </v>
    <v>       0.49309400       0.98261500       0.71411600 </v>
    <v>       0.62015300       0.02921240       0.23642800 </v>
    <v>       0.80613400       0.43153600       0.67736600 </v>
    <v>       0.25614200       0.40914100       0.45384600 </v>
    <v>       0.34447800       0.93780200       0.25588300 </v>
    <v>       0.73349100       0.01102160       0.74640300 </v>
    <v>       0.82347400       0.04509730       0.54473600 </v>
    <v>       0.18401200       0.22019200       0.79763600 </v>
    <v>       0.92759400       0.12534700       0.80691000 </v>
    <v>       0.61781400       0.39986200       0.25401400 </v>
    <v>       0.06975700       0.46850700       0.31520700 </v>
    <v>       0.27030700       0.92174200       0.04258020 </v>
    <v>       0.99485200       0.25357600       0.30614600 </v>
    <v>       0.46454100       0.54211700       0.35306900 </v>
    <v>       0.22221700       0.71319500       0.00821700 </v>
    <v>       0.68115900       0.81741200       0.14988700 </v>
    <v>       0.82977800       0.74839400       0.75277300 </v>
    <v>       0.43636300       0.95325600       0.51420400 </v>
    <v>       0.87866400       0.91943100       0.90150900 </v>
    <v>       0.41480900       0.73482800       0.17041900 </v>
    <v>       0.77573400       0.19339400       0.25547400 </v>
    <v>       0.94891800       0.53861400       0.97435700 </v>
    <v>       0.93619300       0.04491690       0.33938400 </v>
    <v>       0.33792800       0.21418100       0.57094900 </v>
    <v>       0.42802100       0.23375600       0.78815500 </v>
    <v>       0.67095300       0.85610500       0.58340600 </v>
    <v>       0.39289600       0.76167400       0.70160600 </v>
    <v>       0.26950400       0.13318900       0.09554580 </v>
    <v>       0.32306300       0.58716600       0.58938400 </v>
    <v>       0.59009700       0.35852200       0.72241200 </v>
    <v>       0.24194800       0.04345200       0.46825700 </v>
    <v>       0.02930410       0.92465300       0.73702100 </v>
    <v>       0.43384800       0.10949300       0.36388600 </v>
    <v>       0.89337600       0.84198300       0.54631300 </v>
    <v>       0.20956100       0.37011900       0.15710100 </v>
    <v>       0.68743400       0.96031900       0.97913900 </v>
    <v>       0.00561304       0.48167800       0.53474800 </v>
    <v>       0.16001500       0.41825500       0.67824800 </v>
    <v>       0.23188700       0.21968700       0.32208200 </v>
    <v>       0.05465280       0.33519900       0.96182100 </v>
    <v>       0.44330600       0.77425500       0.91900700 </v>
    <v>       0.54829400       0.37012200       0.95771800 </v>
    <v>       0.08775280       0.61002000       0.13307800 </v>
    <v>       0.64732300       0.17492700       0.85993100 </v>
    <v>       0.18582400       0.77971500       0.24594200 </v>
    <v>       0.58674700       0.60852900       0.17862300 </v>
    <v>       0.20877600       0.62083800       0.77617700 </v>
    <v>       0.69580900       0.66883000       0.34713300 </v>
    <v>       0.23482300       0.85852000       0.82724200 </v>
    <v>       0.86494700       0.73294000       0.00969853 </v>
    <v>       0.62966100       0.02552610       0.45649100 </v>
    <v>       0.89979400       0.28554100       0.51046600 </v>
    <v>       0.34868300       0.44507600       0.78287000 </v>
    <v>       0.98579300       0.80034600       0.21775400 </v>
    <v>       0.21893600       0.81787000       0.58660100 </v>
    <v>       0.84432900       0.96577500       0.17394000 </v>
    <v>       0.64146300       0.66944200       0.98290400 </v>
    <v>       0.62103300       0.80845400       0.79164000 </v>
    <v>       0.92592400       0.64688500       0.39754400 </v>
    <v>       0.04389380       0.90302700       0.03904900 </v>
    <v>       0.36269600       0.74138500       0.39407900 </v>
    <v>       0.12405600       0.24032400       0.49030600 </v>
    <v>       0.14890100       0.02554310       0.24994000 </v>
    <v>       0.81943300       0.42408700       0.32169800 </v>
    <v>       0.65100600       0.46077200       0.49942200 </v>
    <v>       0.04069660       0.68592300       0.60923700 </v>
    <v>       0.86697700       0.11894400       0.02117060 </v>
    <v>       0.99267800       0.53873400       0.76033700 </v>
    <v>       0.99748200       0.30811500       0.71628400 </v>
    <v>       0.03704510       0.18645800       0.11929000 </v>
    <v>       0.18620800       0.47970900       0.95949500 </v>
    <v>       0.16681800       0.64763200       0.44775100 </v>
    <v>       0.38891000       0.04317980       0.90364200 </v>
    <v>       0.52405700       0.57846200       0.75727200 </v>
    <v>       0.77230400       0.64318500       0.54986400 </v>
    <v>       0.74809700       0.55342900       0.83856700 </v>
    <v>       0.85470400       0.60940200       0.18716900 </v>
    <v>       0.77748700       0.85378900       0.36902300 </v>
    <v>       0.76355900       0.21454400       0.67144300 </v>
    <v>       0.56020500       0.15866400       0.64169100 </v>
    <v>       0.46250000       0.20797000       0.14361500 </v>
    <v>       0.66480000       0.22808300       0.08073680 </v>
    <v>       0.49805300       0.96134000       0.07128790 </v>
    <v>       0.09231330       0.89120400       0.42335600 </v>
    <v>       0.05601020       0.07725470       0.60611500 </v>
    <v>       0.70779800       0.47887700       0.05739000 </v>
    <v>       0.26799800       0.05184380       0.72740500 </v>
    <v>       0.66331900       0.25697600       0.44760100 </v>
    <v>       0.27481400       0.59179300       0.24041000 </v>
    <v>       0.40691400       0.57200800       0.97055400 </v>
    <v>       0.43060600       0.32498500       0.38282900 </v>
    <v>       0.03912180       0.73463000       0.87119900 </v>
    <v>       0.82748200       0.33882100       0.90599200 </v>
    <v>       0.54820100       0.84219100       0.33957500 </v>
    <v>       0.43869000       0.42252500       0.56634600 </v>
    <v>       0.53180900       0.67024700       0.52461800 </v>
   </varray>
  </structure>
  <varray name="forces" >
   <v>       0.03810448      -1.43263098       1.70951490 </v>
   <v>      -1.53487844      -0.22955834      -1.99389059 </v>
   <v>      -0.29051659       0.33596773       1.90113775 </v>
   <v>       0.69125792      -0.34675511       1.35545436 </v>
   <v>      -0.47764574      -2.76897618       3.20269800 </v>
   <v>      -0.06809806       1.32572123      -0.35851029 </v>
   <v>      -0.14099403       0.60657087      -1.83508979 </v>
   <v>      -4.07831025       2.85757620      -0.43884959 </v>
   <v>       1.76911242       0.05008776       0.64911251 </v>
   <v>       0.10887393      -1.88977491       0.43890075 </v>
   <v>       2.25368179       1.40536118      -0.71899338 </v>
   <v>      -0.05507956       4.59967938      -1.25633075 </v>
   <v>      -0.42545402      -0.24164765      -0.48478756 </v>
   <v>       0.55580384      -2.03577141       0.67543664 </v>
   <v>       0.14868439       0.47711854      -0.11170489 </v>
   <v>      -0.40906602      -0.70680857       0.66915715 </v>
   <v>      -0.62547757       1.83942580       2.04927739 </v>
   <v>       0.41364239       0.40260331       1.38935559 </v>
   <v>       1.38054087      -0.04551540      -1.13462047 </v>
   <v>       0.01208316      -1.06910423       0.49651014 </v>
   <v>       1.45562167      -0.34600910      -0.15951296 </v>
   <v>      -1.75704029      -3.08324140       0.46276835 </v>
   <v>       0.16212731       0.79767482      -1.62658658 </v>
   <v>       0.60372968       1.85176014      -2.59467325 </v>
   <v>       0.55650566      -0.32357834       1.75138193 </v>
   <v>      -0.08107120      -0.84353772       0.17520581 </v>
   <v>       0.43533846       0.00148146       3.06258033 </v>
   <v>       0.90129589       0.74572640       1.45697012 </v>
   <v>      -1.52970462      -0.98246554      -0.07743374 </v>
   <v>      -1.24289832      -1.20851597      -0.43592744 </v>
   <v>       1.71524201       1.03798257       0.09252452 </v>
   <v>      -1.23879234       0.92286467       0.54174061 </v>
   <v>      -1.13691249       1.07655865      -0.55039075 </v>
   <v>       1.88269426       3.23356833       0.30594755 </v>
   <v>      -0.78541983      -0.65321971       0.85325430 </v>
   <v>       0.37092411      -3.55295248       0.89638064 </v>
   <v>       1.23077459       0.71368853      -1.58486679 </v>
   <v>       3.50196256      -0.12027969       1.20838671 </v>
   <v>      -0.67426820      -0.03324392      -0.02178255 </v>
   <v>      -0.85731966       0.97831664      -1.04587879 </v>
   <v>      -0.99236194      -0.60343983      -1.08383933 </v>
   <v>       3.94647751       0.94584244      -1.43949255 </v>
   <v>       2.23269247       0.28007271      -3.93325888 </v>
   <v>      -2.63788326      -3.72633167      -1.14469115 </v>
   <v>      -0.52465643       2.24970620       1.05188847 </v>
   <v>      -1.39546659       0.46463881      -1.25346844 </v>
   <v>      -2.10292128      -1.86302517       0.60813482 </v>
   <v>      -0.26715219      -0.05348162       2.31057110 </v>
   <v>       2.07034806       2.37701911       0.11734967 </v>
   <v>      -0.45596594      -0.06853816      -0.25513541 </v>
   <v>      -0.11226766       0.89260030       0.68273560 </v>
   <v>      -0.68970888      -3.21487049      -0.19837344 </v>
   <v>      -0.58789719      -0.49783250      -0.05748997 </v>
   <v>      -1.32793771       1.20324204       0.60613716 </v>
   <v>      -0.11863993       1.83210533      -1.12073007 </v>
   <v>      -1.12989940      -0.32630516      -1.11702167 </v>
   <v>       0.67413418      -0.80332880       0.11943991 </v>
   <v>      -3.55113219      -0.54728495       1.73072196 </v>
   <v>       0.52492249       1.49869273       0.40145128 </v>
   <v>      -0.80011569      -0.77252259      -1.57070787 </v>
   <v>      -1.44939012       2.04308757      -1.36543933 </v>
   <v>      -0.30669021      -0.08893718       1.14544416 </v>
   <v>       1.45528735       0.74163880      -0.88536082 </v>
   <v>       0.91198603      -0.00096875       0.59771962 </v>
   <v>      -0.97787838       1.47357904       1.88878444 </v>
   <v>      -2.56940787       1.75161790       3.42342922 </v>
   <v>      -2.01925299      -0.56128972      -1.00272849 </v>
   <v>       1.72274258       0.33645092       2.19057423 </v>
   <v>       0.12438901       1.52225869       0.33712965 </v>
   <v>      -1.49766907       2.16599463       2.07717125 </v>
   <v>      -2.25297879       0.60635469      -1.39123787 </v>
   <v>      -0.81590478       0.04970558       0.67873712 </v>
   <v>      -3.16887185      -1.60989388       0.81848229 </v>
   <v>       3.19001412      -0.97538282      -0.98978349 </v>
   <v>       2.85667243       4.21248540      -0.45890488 </v>
   <v>      -0.40514933      -1.21619170      -2.82766303 </v>
   <v>       1.35497204       0.33813842       0.50859319 </v>
   <v>       1.30832874       0.62306024      -0.30830786 </v>
   <v>      -0.19133647      -1.63983470       2.53589902 </v>
   <v>       0.01822252      -0.22477288      -0.15370918 </v>
   <v>      -0.18705074      -0.60903962       0.29170764 </v>
   <v>       1.43628623       3.22592104      -1.40815797 </v>
   <v>       1.65991817       1.48796847       0.26271411 </v>
   <v>      -0.01157818       0.79975263      -4.31997058 </v>
   <v>       0.15047086      -0.41901372       1.33039394 </v>
   <v>       0.56629154      -0.29075823      -1.18303338 </v>
   <v>      -1.45049966      -0.92108343       0.29880448 </v>
   <v>      -2.30255078      -0.91664625       0.38528988 </v>
   <v>      -0.97018468       0.81806517      -1.26612173 </v>
   <v>       1.06349138      -1.41532992      -0.53493264 </v>
   <v>       0.03969553      -2.38169675      -4.06448977 </v>
   <v>      -0.42146974      -2.07787843      -0.42190155 </v>
   <v>       0.18253542      -3.97108198       0.67027492 </v>
   <v>       0.78688262      -1.65365976       1.20273547 </v>
   <v>       3.00041204      -2.31989851      -3.19261924 </v>
   <v>       0.19399653       0.75422538      -0.49590120 </v>
   <v>      -0.59232237      -0.77171859      -1.96131020 </v>
   <v>       0.32066465      -0.41830035      -0.05009550 </v>
   <v>       2.76498243      -1.31782084       2.61054192 </v>
   <v>       0.94832119       0.23778713       1.65915512 </v>
  </varray>
  <varray name="stress" >
   <v>     705.06604470       7.47725645       2.15033161 </v>
   <v>       7.47725669     707.59090012     -10.12590939 </v>
   <v>       2.15033168     -10.12590924     707.84583753 </v>
  </varray>
  <energy>
   <i name="e_fr_energy">   -406.75419991 </i>
   <i name="e_wo_entrp">   -406.71663705 </i>
   <i name="e_0_energy">     -0.07512572 </i>
  </energy>
  <time name="totalsc">   36.76   37.42</time>
  <eigenvalues>
   <array>
    <dimension dim="1">band</dimension>
    <dimension dim="2">kpoint</dimension>
    <dimension dim="3">spin</dimension>
    <field>eigene</field>
    <field>occ</field>
    <set>
     <set comment="spin 1">
      <set comment="kpoint 1">
       <r>   -3.1057    1.0000 </r>
       <r>   -2.0076    1.0000 </r>
       <r>   -1.9074    1.0000 </r>
       <r>   -1.8413    1.0000 </r>
       <r>   -1.6908    1.0000 </r>
       <r>   -1.5980    1.0000 </r>
       <r>   -1.5214    1.0000 </r>
       <r>   -0.8394    1.0000 </r>
       <r>   -0.6973    1.0000 </r>
       <r>   -0.5626    1.0000 </r>
       <r>   -0.4901    1.0000 </r>
       <r>   -0.4492    1.0000 </r>
       <r>   -0.3616    1.0000 </r>
       <r>   -0.3011    1.0000 </r>
       <r>   -0.1855    1.0000 </r>
       <r>   -0.0819    1.0000 </r>
       <r>   -0.0312    1.0000 </r>
       <r>    0.0171    1.0000 </r>
       <r>    0.1589    1.0000 </r>
       <r>    0.8004    1.0000 </r>
       <r>    0.8589    1.0000 </r>
       <r>    0.9158    1.0000 </r>
       <r>    1.0018    1.0000 </r>
       <r>    1.0681    1.0000 </r>
       <r>    1.0809    1.0000 </r>
       <r>    1.2473    1.0000 </r>
       <r>    1.2853    1.0000 </r>
       <r>    2.2610    1.0000 </r>
       <r>    2.3004    1.0000 </r>
       <r>    2.3605    1.0000 </r>
       <r>    2.4056    1.0000 </r>
       <r>    2.5131    1.0000 </r>
       <r>    2.5966    1.0000 </r>
       <r>    3.0498    1.0000 </r>
       <r>    3.2251    1.0000 </r>
       <r>    3.2784    1.0000 </r>
       <r>    3.3088    1.0000 </r>
       <r>    3.4236    1.0000 </r>
       <r>    3.4404    1.0000 </r>
       <r>    3.4766    1.0000 </r>
       <r>    3.5439    1.0000 </r>
       <r>    3.5731    1.0000 </r>
       <r>    3.6079    1.0000 </r>
       <r>    3.6298    1.0000 </r>
       <r>    3.7240    1.0000 </r>
       <r>    3.8005    1.0000 </r>
       <r>    3.8109    1.0000 </r>
       <r>    3.8745    1.0000 </r>
       <r>    3.9090    1.0000 </r>
       <r>    3.9555    1.0000 </r>
       <r>    3.9619    1.0000 </r>
       <r>    4.0095    1.0000 </r>
       <r>    4.0916    1.0000 </r>
       <r>    4.1318    1.0000 </r>
       <r>    4.1598    1.0000 </r>
       <r>    4.2050    1.0000 </r>
       <r>    4.2864    1.0000 </r>
       <r>    4.5858    1.0000 </r>
       <r>    4.6630    1.0000 </r>
       <r>    4.7372    1.0000 </r>
       <r>    4.7495    1.0000 </r>
       <r>    4.8722    1.0000 </r>
       <r>    4.9313    1.0000 </r>
       <r>    4.9628    1.0000 </r>
       <r>    4.9918    1.0000 </r>
       <r>    5.0661    1.0000 </r>
       <r>    5.1436    1.0000 </r>
       <r>    5.1690    1.0000 </r>
       <r>    5.2124    1.0000 </r>
       <r>    5.2377    1.0000 </r>
       <r>    5.2700    1.0000 </r>
       <r>    5.3075    1.0000 </r>
       <r>    5.3413    1.0000 </r>
       <r>    5.4122    1.0000 </r>
       <r>    5.4294    1.0000 </r>
       <r>    5.4992    1.0000 </r>
       <r>    5.5673    1.0000 </r>
       <r>    5.5799    1.0000 </r>
       <r>    5.6830    1.0000 </r>
       <r>    5.7960    1.0000 </r>
       <r>    5.9020    1.0000 </r>
       <r>    7.2084    1.0000 </r>
       <r>    7.3629    1.0000 </r>
       <r>    7.3953    1.0000 </r>
       <r>    7.4138    1.0000 </r>
       <r>    7.4630    1.0000 </r>
       <r>    7.6047    1.0000 </r>
       <r>    7.6635    1.0000 </r>
       <r>    7.6718    1.0000 </r>
       <r>    7.7085    1.0000 </r>
       <r>    7.8455    1.0000 </r>
       <r>    7.8670    1.0000 </r>
       <r>    7.9331    1.0000 </r>
       <r>    8.1669    1.0000 </r>
       <r>    8.2522    1.0000 </r>
       <r>    8.3573    1.0000 </r>
       <r>    8.4068    1.0000 </r>
       <r>    8.5094    1.0000 </r>
       <r>    8.5592    1.0000 </r>
       <r>    8.6458    1.0000 </r>
       <r>    8.6613    1.0000 </r>
       <r>    8.6960    1.0000 </r>
       <r>    8.7538    1.0000 </r>
       <r>    8.7608    1.0000 </r>
       <r>    8.8167    1.0000 </r>
       <r>    8.8405    1.0000 </r>
       <r>    8.8700    1.0000 </r>
       <r>    8.9463    1.0000 </r>
       <r>    9.0232    1.0000 </r>
       <r>    9.0774    1.0000 </r>
       <r>    9.1394    1.0000 </r>
       <r>    9.1650    1.0000 </r>
       <r>    9.2111    1.0000 </r>
       <r>    9.2600    1.0000 </r>
       <r>    9.2779    1.0000 </r>
       <r>    9.2972    1.0000 </r>
       <r>    9.3978    1.0000 </r>
       <r>    9.4102    1.0000 </r>
       <r>    9.4430    1.0000 </r>
       <r>    9.4940    1.0000 </r>
       <r>    9.5396    1.0000 </r>
       <r>    9.6575    1.0000 </r>
       <r>    9.7040    1.0000 </r>
       <r>    9.8764    1.0000 </r>
       <r>    9.9108    1.0000 </r>
       <r>    9.9756    1.0000 </r>
       <r>   10.0448    1.0000 </r>
       <r>   10.1566    1.0000 </r>
       <r>   10.1829    1.0000 </r>
       <r>   10.1978    1.0000 </r>
       <r>   10.2324    1.0000 </r>
       <r>   10.3026    1.0000 </r>
       <r>   10.3194    1.0000 </r>
       <r>   10.3594    1.0000 </r>
       <r>   10.4187    1.0000 </r>
       <r>   10.4561    1.0000 </r>
       <r>   10.4839    1.0000 </r>
       <r>   10.5318    1.0000 </r>
       <r>   10.5928    1.0000 </r>
       <r>   10.6630    1.0000 </r>
       <r>   10.7584    1.0000 </r>
       <r>   10.7725    1.0000 </r>
       <r>   10.8429    1.0000 </r>
       <r>   10.8472    1.0000 </r>
       <r>   10.8663    1.0000 </r>
       <r>   10.9283    1.0000 </r>
       <r>   10.9570    1.0000 </r>
       <r>   11.2744    1.0000 </r>
       <r>   11.2982    1.0000 </r>
       <r>   11.3202    1.0000 </r>
       <r>   11.4145    1.0000 </r>
       <r>   11.4674    1.0000 </r>
       <r>   11.5290    1.0000 </r>
       <r>   11.5636    1.0000 </r>
       <r>   11.6167    1.0000 </r>
       <r>   11.6835    1.0000 </r>
       <r>   11.6924    1.0000 </r>
       <r>   11.7124    1.0000 </r>
       <r>   11.8063    1.0000 </r>
       <r>   11.8281    1.0000 </r>
       <r>   11.8863    1.0000 </r>
       <r>   11.9162    1.0000 </r>
       <r>   11.9511    1.0000 </r>
       <r>   12.0117    1.0000 </r>
       <r>   12.0817    1.0000 </r>
       <r>   12.1057    1.0000 </r>
       <r>   12.1766    1.0000 </r>
       <r>   12.2012    1.0000 </r>
       <r>   12.2607    1.0000 </r>
       <r>   12.3033    1.0000 </r>
       <r>   12.4119    1.0000 </r>
       <r>   12.6355    1.0000 </r>
       <r>   12.8301    1.0000 </r>
       <r>   12.9368    1.0000 </r>
       <r>   13.1157    1.0000 </r>
       <r>   13.1801    1.0000 </r>
       <r>   13.2029    1.0000 </r>
       <r>   13.2581    1.0000 </r>
       <r>   13.4049    1.0000 </r>
       <r>   13.5484    1.0000 </r>
       <r>   13.6830    1.0000 </r>
       <r>   13.7327    1.0000 </r>
       <r>   13.7739    1.0000 </r>
       <r>   13.8358    1.0000 </r>
       <r>   13.8807    1.0000 </r>
       <r>   13.9470    1.0000 </r>
       <r>   13.9690    1.0000 </r>
       <r>   14.0439    1.0000 </r>
       <r>   14.0499    1.0000 </r>
       <r>   14.0997    1.0000 </r>
       <r>   14.1936    1.0000 </r>
       <r>   14.2371    1.0000 </r>
       <r>   14.2933    1.0000 </r>
       <r>   14.3520    1.0000 </r>
       <r>   14.3983    1.0000 </r>
       <r>   14.5092    0.9997 </r>
       <r>   14.5230    0.9988 </r>
       <r>   14.5658    0.9657 </r>
       <r>   14.5905    0.8693 </r>
       <r>   14.6072    0.7421 </r>
       <r>   14.6376    0.4171 </r>
       <r>   14.7017    0.0215 </r>
       <r>   14.7499    0.0004 </r>
       <r>   14.8395    0.0000 </r>
       <r>   14.8897    0.0000 </r>
       <r>   14.9425    0.0000 </r>
       <r>   14.9633    0.0000 </r>
       <r>   14.9965    0.0000 </r>
       <r>   15.0343    0.0000 </r>
       <r>   15.0754    0.0000 </r>
       <r>   15.1444    0.0000 </r>
       <r>   15.1708    0.0000 </r>
       <r>   15.2348    0.0000 </r>
       <r>   15.2902    0.0000 </r>
       <r>   15.3431    0.0000 </r>
       <r>   15.3731    0.0000 </r>
       <r>   15.4340    0.0000 </r>
       <r>   15.4930    0.0000 </r>
       <r>   15.5428    0.0000 </r>
       <r>   15.5794    0.0000 </r>
       <r>   15.5977    0.0000 </r>
       <r>   15.6178    0.0000 </r>
       <r>   15.6436    0.0000 </r>
       <r>   15.6959    0.0000 </r>
       <r>   15.7534    0.0000 </r>
       <r>   15.7974    0.0000 </r>
       <r>   15.8544    0.0000 </r>
       <r>   15.8992    0.0000 </r>
       <r>   15.9220    0.0000 </r>
       <r>   15.9484    0.0000 </r>
       <r>   16.0491    0.0000 </r>
       <r>   16.0709    0.0000 </r>
       <r>   16.0958    0.0000 </r>
       <r>   16.1372    0.0000 </r>
       <r>   16.1722    0.0000 </r>
       <r>   16.2010    0.0000 </r>
       <r>   16.2382    0.0000 </r>
       <r>   16.2589    0.0000 </r>
       <r>   16.3043    0.0000 </r>
       <r>   16.3994    0.0000 </r>
       <r>   16.4463    0.0000 </r>
       <r>   16.5015    0.0000 </r>
       <r>   16.5349    0.0000 </r>
       <r>   16.5622    0.0000 </r>
       <r>   16.6510    0.0000 </r>
       <r>   16.7247    0.0000 </r>
       <r>   16.7601    0.0000 </r>
       <r>   16.7862    0.0000 </r>
       <r>   16.9252    0.0000 </r>
       <r>   16.9532    0.0000 </r>
       <r>   17.0206    0.0000 </r>
       <r>   17.8395    0.0000 </r>
       <r>   17.8487    0.0000 </r>
       <r>   18.0079    0.0000 </r>
       <r>   18.1623    0.0000 </r>
       <r>   18.2498    0.0000 </r>
       <r>   18.3584    0.0000 </r>
       <r>   18.3956    0.0000 </r>
       <r>   18.4657    0.0000 </r>
       <r>   18.4889    0.0000 </r>
       <r>   18.5433    0.0000 </r>
       <r>   18.5976    0.0000 </r>
       <r>   18.7012    0.0000 </r>
       <r>   18.7173    0.0000 </r>
       <r>   18.7703    0.0000 </r>
       <r>   18.8076    0.0000 </r>
       <r>   18.8760    0.0000 </r>
       <r>   18.9272    0.0000 </r>
       <r>   18.9631    0.0000 </r>
       <r>   18.9886    0.0000 </r>
       <r>   19.0147    0.0000 </r>
       <r>   19.0501    0.0000 </r>
       <r>   19.0661    0.0000 </r>
       <r>   19.1347    0.0000 </r>
       <r>   19.1948    0.0000 </r>
       <r>   19.2253    0.0000 </r>
       <r>   19.2620    0.0000 </r>
       <r>   19.2673    0.0000 </r>
       <r>   19.3056    0.0000 </r>
       <r>   19.3309    0.0000 </r>
       <r>   19.3568    0.0000 </r>
       <r>   19.4140    0.0000 </r>
       <r>   19.4658    0.0000 </r>
       <r>   19.4916    0.0000 </r>
       <r>   19.5464    0.0000 </r>
       <r>   19.5565    0.0000 </r>
       <r>   19.5958    0.0000 </r>
       <r>   19.6312    0.0000 </r>
       <r>   19.6597    0.0000 </r>
       <r>   19.7371    0.0000 </r>
       <r>   19.7589    0.0000 </r>
       <r>   19.7611    0.0000 </r>
       <r>   19.7964    0.0000 </r>
       <r>   19.8300    0.0000 </r>
       <r>   19.9073    0.0000 </r>
       <r>   19.9285    0.0000 </r>
       <r>   19.9455    0.0000 </r>
       <r>   20.0255    0.0000 </r>
       <r>   20.0705    0.0000 </r>
       <r>   20.0781    0.0000 </r>
       <r>   20.1181    0.0000 </r>
       <r>   20.1622    0.0000 </r>
       <r>   20.2609    0.0000 </r>
       <r>   20.3262    0.0000 </r>
      </set>
     </set>
     <set comment="spin 2">
      <set comment="kpoint 1">
       <r>   -3.1053    1.0000 </r>
       <r>   -2.0071    1.0000 </r>
       <r>   -1.9069    1.0000 </r>
       <r>   -1.8409    1.0000 </r>
       <r>   -1.6904    1.0000 </r>
       <r>   -1.5976    1.0000 </r>
       <r>   -1.5209    1.0000 </r>
       <r>   -0.8389    1.0000 </r>
       <r>   -0.6969    1.0000 </r>
       <r>   -0.5622    1.0000 </r>
       <r>   -0.4897    1.0000 </r>
       <r>   -0.4488    1.0000 </r>
       <r>   -0.3612    1.0000 </r>
       <r>   -0.3006    1.0000 </r>
       <r>   -0.1851    1.0000 </r>
       <r>   -0.0815    1.0000 </r>
       <r>   -0.0308    1.0000 </r>
       <r>    0.0176    1.0000 </r>
       <r>    0.1593    1.0000 </r>
       <r>    0.8007    1.0000 </r>
       <r>    0.8594    1.0000 </r>
       <r>    0.9163    1.0000 </r>
       <r>    1.0022    1.0000 </r>
       <r>    1.0685    1.0000 </r>
       <r>    1.0813    1.0000 </r>
       <r>    1.2476    1.0000 </r>
       <r>    1.2857    1.0000 </r>
       <r>    2.2614    1.0000 </r>
       <r>    2.3008    1.0000 </r>
       <r>    2.3610    1.0000 </r>
       <r>    2.4061    1.0000 </r>
       <r>    2.5135    1.0000 </r>
       <r>    2.5970    1.0000 </r>
       <r>    3.0502    1.0000 </r>
       <r>    3.2255    1.0000 </r>
       <r>    3.2788    1.0000 </r>
       <r>    3.3092    1.0000 </r>
       <r>    3.4240    1.0000 </r>
       <r>    3.4408    1.0000 </r>
       <r>    3.4771    1.0000 </r>
       <r>    3.5442    1.0000 </r>
       <r>    3.5735    1.0000 </r>
       <r>    3.6083    1.0000 </r>
       <r>    3.6301    1.0000 </r>
       <r>    3.7244    1.0000 </r>
       <r>    3.8008    1.0000 </r>
       <r>    3.8113    1.0000 </r>
       <r>    3.8749    1.0000 </r>
       <r>    3.9094    1.0000 </r>
       <r>    3.9560    1.0000 </r>
       <r>    3.9623    1.0000 </r>
       <r>    4.0100    1.0000 </r>
       <r>    4.0920    1.0000 </r>
       <r>    4.1322    1.0000 </r>
       <r>    4.1602    1.0000 </r>
       <r>    4.2054    1.0000 </r>
       <r>    4.2869    1.0000 </r>
       <r>    4.5861    1.0000 </r>
       <r>    4.6634    1.0000 </r>
       <r>    4.7376    1.0000 </r>
       <r>    4.7499    1.0000 </r>
       <r>    4.8727    1.0000 </r>
       <r>    4.9316    1.0000 </r>
       <r>    4.9633    1.0000 </r>
       <r>    4.9922    1.0000 </r>
       <r>    5.0664    1.0000 </r>
       <r>    5.1440    1.0000 </r>
       <r>    5.1694    1.0000 </r>
       <r>    5.2128    1.0000 </r>
       <r>    5.2381    1.0000 </r>
       <r>    5.2704    1.0000 </r>
       <r>    5.3079    1.0000 </r>
       <r>    5.3417    1.0000 </r>
       <r>    5.4126    1.0000 </r>
       <r>    5.4297    1.0000 </r>
       <r>    5.4997    1.0000 </r>
       <r>    5.5677    1.0000 </r>
       <r>    5.5804    1.0000 </r>
       <r>    5.6833    1.0000 </r>
       <r>    5.7964    1.0000 </r>
       <r>    5.9024    1.0000 </r>
       <r>    7.2088    1.0000 </r>
       <r>    7.3632    1.0000 </r>
       <r>    7.3957    1.0000 </r>
       <r>    7.4142    1.0000 </r>
       <r>    7.4634    1.0000 </r>
       <r>    7.6051    1.0000 </r>
       <r>    7.6639    1.0000 </r>
       <r>    7.6722    1.0000 </r>
       <r>    7.7089    1.0000 </r>
       <r>    7.8460    1.0000 </r>
       <r>    7.8674    1.0000 </r>
       <r>    7.9335    1.0000 </r>
       <r>    8.1672    1.0000 </r>
       <r>    8.2527    1.0000 </r>
       <r>    8.3576    1.0000 </r>
       <r>    8.4073    1.0000 </r>
       <r>    8.5098    1.0000 </r>
       <r>    8.5597    1.0000 </r>
       <r>    8.6462    1.0000 </r>
       <r>    8.6616    1.0000 </r>
       <r>    8.6963    1.0000 </r>
       <r>    8.7542    1.0000 </r>
       <r>    8.7612    1.0000 </r>
       <r>    8.8171    1.0000 </r>
       <r>    8.8410    1.0000 </r>
       <r>    8.8705    1.0000 </r>
       <r>    8.9467    1.0000 </r>
       <r>    9.0237    1.0000 </r>
       <r>    9.0778    1.0000 </r>
       <r>    9.1398    1.0000 </r>
       <r>    9.1654    1.0000 </r>
       <r>    9.2116    1.0000 </r>
       <r>    9.2604    1.0000 </r>
       <r>    9.2783    1.0000 </r>
       <r>    9.2976    1.0000 </r>
       <r>    9.3983    1.0000 </r>
       <r>    9.4106    1.0000 </r>
       <r>    9.4434    1.0000 </r>
       <r>    9.4944    1.0000 </r>
       <r>    9.5401    1.0000 </r>
       <r>    9.6580    1.0000 </r>
       <r>    9.7044    1.0000 </r>
       <r>    9.8768    1.0000 </r>
       <r>    9.9112    1.0000 </r>
       <r>    9.9760    1.0000 </r>
       <r>   10.0452    1.0000 </r>
       <r>   10.1569    1.0000 </r>
       <r>   10.1833    1.0000 </r>
       <r>   10.1982    1.0000 </r>
       <r>   10.2328    1.0000 </r>
       <r>   10.3030    1.0000 </r>
       <r>   10.3198    1.0000 </r>
       <r>   10.3598    1.0000 </r>
       <r>   10.4191    1.0000 </r>
       <r>   10.4566    1.0000 </r>
       <r>   10.4843    1.0000 </r>
       <r>   10.5322    1.0000 </r>
       <r>   10.5932    1.0000 </r>
       <r>   10.6635    1.0000 </r>
       <r>   10.7588    1.0000 </r>
       <r>   10.7729    1.0000 </r>
       <r>   10.8432    1.0000 </r>
       <r>   10.8476    1.0000 </r>
       <r>   10.8667    1.0000 </r>
       <r>   10.9287    1.0000 </r>
       <r>   10.9574    1.0000 </r>
       <r>   11.2749    1.0000 </r>
       <r>   11.2987    1.0000 </r>
       <r>   11.3206    1.0000 </r>
       <r>   11.4148    1.0000 </r>
       <r>   11.4678    1.0000 </r>
       <r>   11.5295    1.0000 </r>
       <r>   11.5640    1.0000 </r>
       <r>   11.6171    1.0000 </r>
       <r>   11.6839    1.0000 </r>
       <r>   11.6929    1.0000 </r>
       <r>   11.7128    1.0000 </r>
       <r>   11.8067    1.0000 </r>
       <r>   11.8286    1.0000 </r>
       <r>   11.8868    1.0000 </r>
       <r>   11.9166    1.0000 </r>
       <r>   11.9514    1.0000 </r>
       <r>   12.0121    1.0000 </r>
       <r>   12.0822    1.0000 </r>
       <r>   12.1061    1.0000 </r>
       <r>   12.1771    1.0000 </r>
       <r>   12.2016    1.0000 </r>
       <r>   12.2611    1.0000 </r>
       <r>   12.3037    1.0000 </r>
       <r>   12.4123    1.0000 </r>
       <r>   12.6359    1.0000 </r>
       <r>   12.8305    1.0000 </r>
       <r>   12.9372    1.0000 </r>
       <r>   13.1161    1.0000 </r>
       <r>   13.1805    1.0000 </r>
       <r>   13.2032    1.0000 </r>
       <r>   13.2585    1.0000 </r>
       <r>   13.4053    1.0000 </r>
       <r>   13.5488    1.0000 </r>
       <r>   13.6834    1.0000 </r>
       <r>   13.7331    1.0000 </r>
       <r>   13.7743    1.0000 </r>
       <r>   13.8362    1.0000 </r>
       <r>   13.8811    1.0000 </r>
       <r>   13.9474    1.0000 </r>
       <r>   13.9694    1.0000 </r>
       <r>   14.0443    1.0000 </r>
       <r>   14.0503    1.0000 </r>
       <r>   14.1001    1.0000 </r>
       <r>   14.1940    1.0000 </r>
       <r>   14.2376    1.0000 </r>
       <r>   14.2937    1.0000 </r>
       <r>   14.3524    1.0000 </r>
       <r>   14.3987    1.0000 </r>
       <r>   14.5096    0.9997 </r>
       <r>   14.5234    0.9987 </r>
[...]
       <r>    -1.1705     0.0000     7.0000 </r>
       <r>    -1.0840     0.0000     7.0000 </r>
       <r>    -0.9974     0.0000     7.0000 </r>
       <r>    -0.9109     0.2419     7.0209 </r>
       <r>    -0.8244     7.3882     7.6603 </r>
       <r>    -0.7378     5.3306     8.1216 </r>
       <r>    -0.6513     9.0822     8.9075 </r>
       <r>    -0.5647     6.7163     9.4887 </r>
       <r>    -0.4782    15.4091    10.8221 </r>
       <r>    -0.3917    15.2703    12.1435 </r>
       <r>    -0.3051    14.4410    13.3931 </r>
       <r>    -0.2186     8.8821    14.1617 </r>
       <r>    -0.1321     9.8227    15.0117 </r>
       <r>    -0.0455    13.9734    16.2209 </r>
       <r>     0.0410    17.3805    17.7249 </r>
       <r>     0.1275     5.3003    18.1836 </r>
       <r>     0.2141     8.7336    18.9394 </r>
       <r>     0.3006     0.7005    19.0000 </r>
       <r>     0.3871     0.0004    19.0000 </r>
       <r>     0.4737     0.0000    19.0000 </r>
       <r>     0.5602     0.0000    19.0000 </r>
       <r>     0.6467     0.0001    19.0000 </r>
       <r>     0.7333     0.3273    19.0283 </r>
       <r>     0.8198     9.3748    19.8396 </r>
       <r>     0.9063    16.8675    21.2992 </r>
       <r>     0.9929    12.7600    22.4034 </r>
       <r>     1.0794    19.4323    24.0849 </r>
       <r>     1.1659    10.5688    24.9995 </r>
       <r>     1.2525     8.4173    25.7279 </r>
       <r>     1.3390    13.8838    26.9293 </r>
       <r>     1.4255     0.8165    27.0000 </r>
       <r>     1.5121     0.0004    27.0000 </r>
       <r>     1.5986     0.0000    27.0000 </r>
       <r>     1.6851     0.0000    27.0000 </r>
       <r>     1.7717     0.0000    27.0000 </r>
       <r>     1.8582     0.0000    27.0000 </r>
       <r>     1.9447     0.0000    27.0000 </r>
       <r>     2.0313     0.0000    27.0000 </r>
       <r>     2.1178     0.0003    27.0000 </r>
       <r>     2.2043     0.6541    27.0566 </r>
       <r>     2.2909    13.3520    28.2120 </r>
       <r>     2.3774    19.1901    29.8726 </r>
       <r>     2.4639    13.3531    31.0281 </r>
       <r>     2.5505    10.6100    31.9463 </r>
       <r>     2.6370    10.6823    32.8707 </r>
       <r>     2.7236     1.4927    32.9998 </r>
       <r>     2.8101     0.0020    33.0000 </r>
       <r>     2.8966     0.0001    33.0000 </r>
       <r>     2.9832     0.3337    33.0289 </r>
       <r>     3.0697     7.8580    33.7089 </r>
       <r>     3.1562     3.6419    34.0240 </r>
       <r>     3.2428     9.8005    34.8721 </r>
       <r>     3.3293    20.4510    36.6418 </r>
       <r>     3.4158    12.0954    37.6885 </r>
       <r>     3.5024    24.9824    39.8503 </r>
       <r>     3.5889    24.5749    41.9769 </r>
       <r>     3.6754    22.8271    43.9522 </r>
       <r>     3.7620    12.9611    45.0738 </r>
       <r>     3.8485    22.6825    47.0366 </r>
       <r>     3.9350    25.4074    49.2352 </r>
       <r>     4.0216    27.0192    51.5733 </r>
       <r>     4.1081    16.4113    52.9934 </r>
       <r>     4.1946    25.2606    55.1794 </r>
       <r>     4.2812    14.3246    56.4189 </r>
       <r>     4.3677     6.5859    56.9888 </r>
       <r>     4.4542     0.1302    57.0001 </r>
       <r>     4.5408     1.1546    57.1000 </r>
       <r>     4.6273    10.7757    58.0325 </r>
       <r>     4.7138    14.9719    59.3280 </r>
       <r>     4.8004    18.2360    60.9061 </r>
       <r>     4.8869    10.0584    61.7765 </r>
       <r>     4.9734    23.3287    63.7952 </r>
       <r>     5.0600    18.6237    65.4068 </r>
       <r>     5.1465    16.2212    66.8105 </r>
       <r>     5.2330    28.5510    69.2811 </r>
       <r>     5.3196    29.1846    71.8066 </r>
       <r>     5.4061    21.2610    73.6464 </r>
       <r>     5.4926    20.2095    75.3952 </r>
       <r>     5.5792    19.7375    77.1032 </r>
       <r>     5.6657    13.8127    78.2984 </r>
       <r>     5.7523     9.0329    79.0801 </r>
       <r>     5.8388     9.7122    79.9205 </r>
       <r>     5.9253     9.4867    80.7415 </r>
       <r>     6.0119     2.9763    80.9990 </r>
       <r>     6.0984     0.0113    81.0000 </r>
       <r>     6.1849     0.0000    81.0000 </r>
       <r>     6.2715     0.0000    81.0000 </r>
       <r>     6.3580     0.0000    81.0000 </r>
       <r>     6.4445     0.0000    81.0000 </r>
       <r>     6.5311     0.0000    81.0000 </r>
       <r>     6.6176     0.0000    81.0000 </r>
       <r>     6.7041     0.0000    81.0000 </r>
       <r>     6.7907     0.0000    81.0000 </r>
       <r>     6.8772     0.0000    81.0000 </r>
       <r>     6.9637     0.0000    81.0000 </r>
       <r>     7.0503     0.0000    81.0000 </r>
       <r>     7.1368     0.2412    81.0209 </r>
       <r>     7.2233     7.3827    81.6597 </r>
       <r>     7.3099     4.7719    82.0727 </r>
       <r>     7.3964    18.4629    83.6703 </r>
       <r>     7.4829    23.1905    85.6771 </r>
       <r>     7.5695     5.5890    86.1608 </r>
       <r>     7.6560    18.0926    87.7264 </r>
       <r>     7.7425    23.8991    89.7945 </r>
       <r>     7.8291     7.6553    90.4569 </r>
       <r>     7.9156    20.0957    92.1959 </r>
       <r>     8.0021     8.9905    92.9739 </r>
       <r>     8.0887     0.4536    93.0131 </r>
       <r>     8.1752     6.8203    93.6033 </r>
       <r>     8.2617    11.5282    94.6009 </r>
       <r>     8.3483     9.6945    95.4398 </r>
       <r>     8.4348    15.5433    96.7848 </r>
       <r>     8.5213    11.3494    97.7669 </r>
       <r>     8.6079    15.6439    99.1207 </r>
       <r>     8.6944    25.0771   101.2907 </r>
       <r>     8.7809    27.6395   103.6825 </r>
       <r>     8.8675    28.7830   106.1732 </r>
       <r>     8.9540    16.4584   107.5974 </r>
       <r>     9.0406    14.2250   108.8283 </r>
       <r>     9.1271    18.4305   110.4232 </r>
       <r>     9.2136    24.6180   112.5535 </r>
       <r>     9.3002    29.7502   115.1279 </r>
       <r>     9.3867    17.8165   116.6696 </r>
       <r>     9.4732    27.5057   119.0498 </r>
       <r>     9.5598    18.8526   120.6812 </r>
       <r>     9.6463     8.5326   121.4196 </r>
       <r>     9.7328    15.6319   122.7723 </r>
       <r>     9.8194     3.2805   123.0562 </r>
       <r>     9.9059    13.8920   124.2583 </r>
       <r>     9.9924    17.0673   125.7352 </r>
       <r>    10.0790    12.8136   126.8440 </r>
       <r>    10.1655    14.6081   128.1081 </r>
       <r>    10.2520    30.1419   130.7164 </r>
       <r>    10.3386    24.4236   132.8299 </r>
       <r>    10.4251    22.4022   134.7684 </r>
       <r>    10.5116    25.8608   137.0063 </r>
       <r>    10.5982    17.9192   138.5569 </r>
       <r>    10.6847    13.7349   139.7454 </r>
       <r>    10.7712    16.3123   141.1570 </r>
       <r>    10.8578    29.2357   143.6869 </r>
       <r>    10.9443    26.8064   146.0066 </r>
       <r>    11.0308    11.2393   146.9792 </r>
       <r>    11.1174     0.2408   147.0000 </r>
       <r>    11.2039     0.3065   147.0265 </r>
       <r>    11.2904    14.4217   148.2745 </r>
       <r>    11.3770    20.8227   150.0764 </r>
       <r>    11.4635    15.2982   151.4002 </r>
       <r>    11.5500    19.4791   153.0858 </r>
       <r>    11.6366    20.3800   154.8494 </r>
       <r>    11.7231    28.2440   157.2934 </r>
       <r>    11.8096    17.8890   158.8414 </r>
       <r>    11.8962    23.9324   160.9124 </r>
       <r>    11.9827    23.9287   162.9831 </r>
       <r>    12.0693    16.9917   164.4534 </r>
       <r>    12.1558    21.0330   166.2735 </r>
       <r>    12.2423    22.0459   168.1812 </r>
       <r>    12.3289    18.0434   169.7426 </r>
       <r>    12.4154     9.1464   170.5341 </r>
       <r>    12.5019     5.3201   170.9945 </r>
       <r>    12.5885     1.1036   171.0900 </r>
       <r>    12.6750     8.9653   171.8658 </r>
       <r>    12.7615     1.8448   172.0254 </r>
       <r>    12.8481     7.7546   172.6964 </r>
       <r>    12.9346     8.9256   173.4688 </r>
       <r>    13.0211     6.0785   173.9948 </r>
       <r>    13.1077     5.0197   174.4292 </r>
       <r>    13.1942    18.9777   176.0714 </r>
       <r>    13.2807    19.0383   177.7189 </r>
       <r>    13.3673     4.8632   178.1397 </r>
       <r>    13.4538     8.9982   178.9184 </r>
       <r>    13.5403     5.6274   179.4053 </r>
       <r>    13.6269     7.3655   180.0427 </r>
       <r>    13.7134    12.6094   181.1338 </r>
       <r>    13.7999    20.4059   182.8996 </r>
       <r>    13.8865    18.8855   184.5339 </r>
       <r>    13.9730    20.8494   186.3381 </r>
       <r>    14.0595    23.7024   188.3891 </r>
       <r>    14.1461    18.5001   189.9900 </r>
       <r>    14.2326    15.7008   191.3487 </r>
       <r>    14.3191    18.3819   192.9394 </r>
       <r>    14.4057    18.1956   194.5139 </r>
       <r>    14.4922    11.5968   195.5174 </r>
       <r>    14.5787    30.5993   198.1653 </r>
       <r>    14.6653    31.0692   200.8539 </r>
       <r>    14.7518    18.3641   202.4430 </r>
       <r>    14.8383    12.7857   203.5494 </r>
       <r>    14.9249    20.1422   205.2924 </r>
       <r>    15.0114    29.3643   207.8334 </r>
       <r>    15.0979    22.8113   209.8073 </r>
       <r>    15.1845    20.6297   211.5925 </r>
       <r>    15.2710    18.0464   213.1542 </r>
       <r>    15.3576    20.9439   214.9665 </r>
       <r>    15.4441    19.6550   216.6673 </r>
       <r>    15.5306    19.2121   218.3298 </r>
       <r>    15.6172    33.9239   221.2654 </r>
       <r>    15.7037    27.0918   223.6098 </r>
       <r>    15.7902    19.4805   225.2955 </r>
       <r>    15.8768    20.8265   227.0977 </r>
       <r>    15.9633    27.8466   229.5074 </r>
       <r>    16.0498    15.8102   230.8755 </r>
       <r>    16.1364    30.4014   233.5063 </r>
       <r>    16.2229    30.3484   236.1325 </r>
       <r>    16.3094    26.8619   238.4569 </r>
       <r>    16.3960    12.3891   239.5290 </r>
       <r>    16.4825    19.3741   241.2055 </r>
       <r>    16.5690    25.1499   243.3819 </r>
       <r>    16.6556    13.6957   244.5670 </r>
       <r>    16.7421    17.5383   246.0847 </r>
       <r>    16.8286    20.4833   247.8572 </r>
       <r>    16.9152     7.6934   248.5229 </r>
       <r>    17.0017    19.2625   250.1898 </r>
       <r>    17.0882     9.0313   250.9713 </r>
       <r>    17.1748     0.3314   251.0000 </r>
       <r>    17.2613     0.0001   251.0000 </r>
       <r>    17.3478     0.0000   251.0000 </r>
       <r>    17.4344     0.0000   251.0000 </r>
       <r>    17.5209     0.0000   251.0000 </r>
       <r>    17.6074     0.0000   251.0000 </r>
       <r>    17.6940     0.0003   251.0000 </r>
       <r>    17.7805     0.8378   251.0725 </r>
       <r>    17.8670    16.1765   252.4723 </r>
       <r>    17.9536     6.7754   253.0586 </r>
       <r>    18.0401     8.7544   253.8162 </r>
       <r>    18.1266     3.8985   254.1536 </r>
       <r>    18.2132    10.5972   255.0706 </r>
       <r>    18.2997    10.3896   255.9696 </r>
       <r>    18.3863    14.0560   257.1860 </r>
       <r>    18.4728    19.8321   258.9021 </r>
       <r>    18.5593    21.6901   260.7790 </r>
       <r>    18.6459    13.9722   261.9881 </r>
       <r>    18.7324    18.8882   263.6226 </r>
       <r>    18.8189    22.6813   265.5853 </r>
       <r>    18.9055    17.6948   267.1165 </r>
       <r>    18.9920    28.8368   269.6119 </r>
       <r>    19.0785    32.5761   272.4308 </r>
       <r>    19.1651    18.6276   274.0428 </r>
       <r>    19.2516    28.2963   276.4914 </r>
       <r>    19.3381    36.6691   279.6645 </r>
       <r>    19.4247    23.8528   281.7286 </r>
       <r>    19.5112    24.6817   283.8644 </r>
       <r>    19.5977    30.7086   286.5217 </r>
       <r>    19.6843    26.0117   288.7726 </r>
       <r>    19.7708    29.3414   291.3117 </r>
       <r>    19.8573    28.8467   293.8079 </r>
       <r>    19.9439    24.9418   295.9662 </r>
       <r>    20.0304    19.0443   297.6142 </r>
       <r>    20.1169    25.7739   299.8445 </r>
       <r>    20.2035    17.5468   301.3629 </r>
       <r>    20.2900     9.7768   302.2090 </r>
       <r>    20.3765     8.6186   302.9548 </r>
       <r>    20.4631     2.6804   303.1867 </r>
       <r>    20.5496     8.7089   303.9403 </r>
       <r>    20.6361     0.6892   304.0000 </r>
       <r>    20.7227     0.0004   304.0000 </r>
       <r>    20.8092     0.0000   304.0000 </r>
       <r>    20.8957     0.0000   304.0000 </r>
       <r>    20.9823     0.0000   304.0000 </r>
       <r>    21.0688     0.0000   304.0000 </r>
       <r>    21.1553     0.0000   304.0000 </r>
       <r>    21.2419     0.0000   304.0000 </r>
       <r>    21.3284     0.0000   304.0000 </r>
       <r>    21.4149     0.0000   304.0000 </r>
       <r>    21.5015     0.0000   304.0000 </r>
       <r>    21.5880     0.0000   304.0000 </r>
       <r>    21.6746     0.0000   304.0000 </r>
      </set>
     </set>
    </array>
   </total>
  </dos>
 </calculation>
 <structure name="finalpos" >
  <crystal>
   <varray name="basis" >
    <v>      10.21149500       0.00000000       0.00000000 </v>
    <v>       0.00000000      10.21149500       0.00000000 </v>
    <v>       0.00000000       0.00000000      10.21149500 </v>
   </varray>
   <i name="volume">   1064.79986425 </i>
   <varray name="rec_basis" >
    <v>       0.09792885       0.00000000       0.00000000 </v>
    <v>       0.00000000       0.09792885       0.00000000 </v>
    <v>       0.00000000       0.00000000       0.09792885 </v>
   </varray>
  </crystal>
  <varray name="positions" >
   <v>       0.11405100       0.07955640       0.92828600 </v>
   <v>       0.42432400       0.43410200       0.16536500 </v>
   <v>       0.32642600       0.30269400       0.96011600 </v>
   <v>       0.88855700       0.36333700       0.11508000 </v>
   <v>       0.49309400       0.98261500       0.71411600 </v>
   <v>       0.62015300       0.02921240       0.23642800 </v>
   <v>       0.80613400       0.43153600       0.67736600 </v>
   <v>       0.25614200       0.40914100       0.45384600 </v>
   <v>       0.34447800       0.93780200       0.25588300 </v>
   <v>       0.73349100       0.01102160       0.74640300 </v>
   <v>       0.82347400       0.04509730       0.54473600 </v>
   <v>       0.18401200       0.22019200       0.79763600 </v>
   <v>       0.92759400       0.12534700       0.80691000 </v>
   <v>       0.61781400       0.39986200       0.25401400 </v>
   <v>       0.06975700       0.46850700       0.31520700 </v>
   <v>       0.27030700       0.92174200       0.04258020 </v>
   <v>       0.99485200       0.25357600       0.30614600 </v>
   <v>       0.46454100       0.54211700       0.35306900 </v>
   <v>       0.22221700       0.71319500       0.00821700 </v>
   <v>       0.68115900       0.81741200       0.14988700 </v>
   <v>       0.82977800       0.74839400       0.75277300 </v>
   <v>       0.43636300       0.95325600       0.51420400 </v>
   <v>       0.87866400       0.91943100       0.90150900 </v>
   <v>       0.41480900       0.73482800       0.17041900 </v>
   <v>       0.77573400       0.19339400       0.25547400 </v>
   <v>       0.94891800       0.53861400       0.97435700 </v>
   <v>       0.93619300       0.04491690       0.33938400 </v>
   <v>       0.33792800       0.21418100       0.57094900 </v>
   <v>       0.42802100       0.23375600       0.78815500 </v>
   <v>       0.67095300       0.85610500       0.58340600 </v>
   <v>       0.39289600       0.76167400       0.70160600 </v>
   <v>       0.26950400       0.13318900       0.09554580 </v>
   <v>       0.32306300       0.58716600       0.58938400 </v>
   <v>       0.59009700       0.35852200       0.72241200 </v>
   <v>       0.24194800       0.04345200       0.46825700 </v>
   <v>       0.02930410       0.92465300       0.73702100 </v>
   <v>       0.43384800       0.10949300       0.36388600 </v>
   <v>       0.89337600       0.84198300       0.54631300 </v>
   <v>       0.20956100       0.37011900       0.15710100 </v>
   <v>       0.68743400       0.96031900       0.97913900 </v>
   <v>       0.00561304       0.48167800       0.53474800 </v>
   <v>       0.16001500       0.41825500       0.67824800 </v>
   <v>       0.23188700       0.21968700       0.32208200 </v>
   <v>       0.05465280       0.33519900       0.96182100 </v>
   <v>       0.44330600       0.77425500       0.91900700 </v>
   <v>       0.54829400       0.37012200       0.95771800 </v>
   <v>       0.08775280       0.61002000       0.13307800 </v>
   <v>       0.64732300       0.17492700       0.85993100 </v>
   <v>       0.18582400       0.77971500       0.24594200 </v>
   <v>       0.58674700       0.60852900       0.17862300 </v>
   <v>       0.20877600       0.62083800       0.77617700 </v>
   <v>       0.69580900       0.66883000       0.34713300 </v>
   <v>       0.23482300       0.85852000       0.82724200 </v>
   <v>       0.86494700       0.73294000       0.00969853 </v>
   <v>       0.62966100       0.02552610       0.45649100 </v>
   <v>       0.89979400       0.28554100       0.51046600 </v>
   <v>       0.34868300       0.44507600       0.78287000 </v>
   <v>       0.98579300       0.80034600       0.21775400 </v>
   <v>       0.21893600       0.81787000       0.58660100 </v>
   <v>       0.84432900       0.96577500       0.17394000 </v>
   <v>       0.64146300       0.66944200       0.98290400 </v>
   <v>       0.62103300       0.80845400       0.79164000 </v>
   <v>       0.92592400       0.64688500       0.39754400 </v>
   <v>       0.04389380       0.90302700       0.03904900 </v>
   <v>       0.36269600       0.74138500       0.39407900 </v>
   <v>       0.12405600       0.24032400       0.49030600 </v>
   <v>       0.14890100       0.02554310       0.24994000 </v>
   <v>       0.81943300       0.42408700       0.32169800 </v>
   <v>       0.65100600       0.46077200       0.49942200 </v>
   <v>       0.04069660       0.68592300       0.60923700 </v>
   <v>       0.86697700       0.11894400       0.02117060 </v>
   <v>       0.99267800       0.53873400       0.76033700 </v>
   <v>       0.99748200       0.30811500       0.71628400 </v>
   <v>       0.03704510       0.18645800       0.11929000 </v>
   <v>       0.18620800       0.47970900       0.95949500 </v>
   <v>       0.16681800       0.64763200       0.44775100 </v>
   <v>       0.38891000       0.04317980       0.90364200 </v>
   <v>       0.52405700       0.57846200       0.75727200 </v>
   <v>       0.77230400       0.64318500       0.54986400 </v>
   <v>       0.74809700       0.55342900       0.83856700 </v>
   <v>       0.85470400       0.60940200       0.18716900 </v>
   <v>       0.77748700       0.85378900       0.36902300 </v>
   <v>       0.76355900       0.21454400       0.67144300 </v>
   <v>       0.56020500       0.15866400       0.64169100 </v>
   <v>       0.46250000       0.20797000       0.14361500 </v>
   <v>       0.66480000       0.22808300       0.08073680 </v>
   <v>       0.49805300       0.96134000       0.07128790 </v>
   <v>       0.09231330       0.89120400       0.42335600 </v>
   <v>       0.05601020       0.07725470       0.60611500 </v>
   <v>       0.70779800       0.47887700       0.05739000 </v>
   <v>       0.26799800       0.05184380       0.72740500 </v>
   <v>       0.66331900       0.25697600       0.44760100 </v>
   <v>       0.27481400       0.59179300       0.24041000 </v>
   <v>       0.40691400       0.57200800       0.97055400 </v>
   <v>       0.43060600       0.32498500       0.38282900 </v>
   <v>       0.03912180       0.73463000       0.87119900 </v>
   <v>       0.82748200       0.33882100       0.90599200 </v>
   <v>       0.54820100       0.84219100       0.33957500 </v>
   <v>       0.43869000       0.42252500       0.56634600 </v>
   <v>       0.53180900       0.67024700       0.52461800 </v>
  </varray>
 </structure>
</modeling>
