unknown system                          
           1
    10.211495    0.000000    0.000000
     0.000000   10.211495    0.000000
     0.000000    0.000000   10.211495
   Si
 100
Direct configuration=     1
   0.11405100  0.07955640  0.92828600
   0.42432400  0.43410200  0.16536500
   0.32642600  0.30269400  0.96011600
   0.88855700  0.36333700  0.11508000
   0.49309400  0.98261500  0.71411600
   0.62015300  0.02921240  0.23642800
   0.80613400  0.43153600  0.67736600
   0.25614200  0.40914100  0.45384600
   0.34447800  0.93780200  0.25588300
   0.73349100  0.01102160  0.74640300
   0.82347400  0.04509730  0.54473600
   0.18401200  0.22019200  0.79763600
   0.92759400  0.12534700  0.80691000
   0.61781400  0.39986200  0.25401400
   0.06975700  0.46850700  0.31520700
   0.27030700  0.92174200  0.04258020
   0.99485200  0.25357600  0.30614600
   0.46454100  0.54211700  0.35306900
   0.22221700  0.71319500  0.00821700
   0.68115900  0.81741200  0.14988700
   0.82977800  0.74839400  0.75277300
   0.43636300  0.95325600  0.51420400
   0.87866400  0.91943100  0.90150900
   0.41480900  0.73482800  0.17041900
   0.77573400  0.19339400  0.25547400
   0.94891800  0.53861400  0.97435700
   0.93619300  0.04491690  0.33938400
   0.33792800  0.21418100  0.57094900
   0.42802100  0.23375600  0.78815500
   0.67095300  0.85610500  0.58340600
   0.39289600  0.76167400  0.70160600
   0.26950400  0.13318900  0.09554580
   0.32306300  0.58716600  0.58938400
   0.59009700  0.35852200  0.72241200
   0.24194800  0.04345200  0.46825700
   0.02930410  0.92465300  0.73702100
   0.43384800  0.10949300  0.36388600
   0.89337600  0.84198300  0.54631300
   0.20956100  0.37011900  0.15710100
   0.68743400  0.96031900  0.97913900
   0.00561304  0.48167800  0.53474800
   0.16001500  0.41825500  0.67824800
   0.23188700  0.21968700  0.32208200
   0.05465280  0.33519900  0.96182100
   0.44330600  0.77425500  0.91900700
   0.54829400  0.37012200  0.95771800
   0.08775280  0.61002000  0.13307800
   0.64732300  0.17492700  0.85993100
   0.18582400  0.77971500  0.24594200
   0.58674700  0.60852900  0.17862300
   0.20877600  0.62083800  0.77617700
   0.69580900  0.66883000  0.34713300
   0.23482300  0.85852000  0.82724200
   0.86494700  0.73294000  0.00969853
   0.62966100  0.02552610  0.45649100
   0.89979400  0.28554100  0.51046600
   0.34868300  0.44507600  0.78287000
   0.98579300  0.80034600  0.21775400
   0.21893600  0.81787000  0.58660100
   0.84432900  0.96577500  0.17394000
   0.64146300  0.66944200  0.98290400
   0.62103300  0.80845400  0.79164000
   0.92592400  0.64688500  0.39754400
   0.04389380  0.90302700  0.03904900
   0.36269600  0.74138500  0.39407900
   0.12405600  0.24032400  0.49030600
   0.14890100  0.02554310  0.24994000
   0.81943300  0.42408700  0.32169800
   0.65100600  0.46077200  0.49942200
   0.04069660  0.68592300  0.60923700
   0.86697700  0.11894400  0.02117060
   0.99267800  0.53873400  0.76033700
   0.99748200  0.30811500  0.71628400
   0.03704510  0.18645800  0.11929000
   0.18620800  0.47970900  0.95949500
   0.16681800  0.64763200  0.44775100
   0.38891000  0.04317980  0.90364200
   0.52405700  0.57846200  0.75727200
   0.77230400  0.64318500  0.54986400
   0.74809700  0.55342900  0.83856700
   0.85470400  0.60940200  0.18716900
   0.77748700  0.85378900  0.36902300
   0.76355900  0.21454400  0.67144300
   0.56020500  0.15866400  0.64169100
   0.46250000  0.20797000  0.14361500
   0.66480000  0.22808300  0.08073680
   0.49805300  0.96134000  0.07128790
   0.09231330  0.89120400  0.42335600
   0.05601020  0.07725470  0.60611500
   0.70779800  0.47887700  0.05739000
   0.26799800  0.05184380  0.72740500
   0.66331900  0.25697600  0.44760100
   0.27481400  0.59179300  0.24041000
   0.40691400  0.57200800  0.97055400
   0.43060600  0.32498500  0.38282900
   0.03912180  0.73463000  0.87119900
   0.82748200  0.33882100  0.90599200
   0.54820100  0.84219100  0.33957500
   0.43869000  0.42252500  0.56634600
   0.53180900  0.67024700  0.52461800
