 100 100   0   0
  0.1064800E+02  0.1021150E-08  0.1021150E-08  0.1021150E-08  0.5000000E-15
  1.000000000000000E-004
  CAR 
 unknown system                          
     21.75270959     -4.21611549  301     14.86236411      1.00000000
     -4.216  0.0000E+00  0.0000E+00  0.0000E+00  0.0000E+00
     -4.130  0.0000E+00  0.0000E+00  0.0000E+00  0.0000E+00
     -4.043  0.0000E+00  0.0000E+00  0.0000E+00  0.0000E+00
     -3.956  0.0000E+00  0.0000E+00  0.0000E+00  0.0000E+00
     -3.870  0.0000E+00  0.0000E+00  0.0000E+00  0.0000E+00
     -3.783  0.0000E+00  0.0000E+00  0.0000E+00  0.0000E+00
     -3.697  0.0000E+00  0.0000E+00  0.0000E+00  0.0000E+00
     -3.610  0.0000E+00  0.0000E+00  0.0000E+00  0.0000E+00
     -3.524  0.0000E+00  0.0000E+00  0.0000E+00  0.0000E+00
     -3.437  0.0000E+00  0.0000E+00  0.0000E+00  0.0000E+00
     -3.350  0.0000E+00  0.0000E+00  0.0000E+00  0.0000E+00
     -3.264  0.6260E-09  0.6117E-09  0.5419E-10  0.5295E-10
     -3.177  0.3561E-03  0.3509E-03  0.3082E-04  0.3037E-04
     -3.091  0.6883E+00  0.6835E+00  0.5961E-01  0.5920E-01
     -3.004  0.8707E+01  0.8701E+01  0.8134E+00  0.8124E+00
     -2.918  0.2151E+01  0.2162E+01  0.9996E+00  0.9996E+00
     -2.831  0.4862E-02  0.4924E-02  0.1000E+01  0.1000E+01
     -2.745  0.4138E-07  0.4225E-07  0.1000E+01  0.1000E+01
     -2.658  0.1283E-14  0.1283E-14  0.1000E+01  0.1000E+01
     -2.571  0.0000E+00  0.0000E+00  0.1000E+01  0.1000E+01
     -2.485  0.0000E+00  0.0000E+00  0.1000E+01  0.1000E+01
     -2.398  0.0000E+00  0.0000E+00  0.1000E+01  0.1000E+01
     -2.312  0.0000E+00  0.0000E+00  0.1000E+01  0.1000E+01
     -2.225  0.0000E+00  0.0000E+00  0.1000E+01  0.1000E+01
     -2.139  0.8210E-11  0.7980E-11  0.1000E+01  0.1000E+01
     -2.052  0.2076E-04  0.2037E-04  0.1000E+01  0.1000E+01
     -1.965  0.1668E+00  0.1652E+00  0.1014E+01  0.1014E+01
     -1.879  0.7168E+01  0.7149E+01  0.1635E+01  0.1633E+01
     -1.792  0.1251E+02  0.1252E+02  0.2718E+01  0.2717E+01
     -1.706  0.7262E+01  0.7258E+01  0.3347E+01  0.3345E+01
     -1.619  0.1715E+02  0.1716E+02  0.4832E+01  0.4831E+01
     -1.533  0.5366E+01  0.5359E+01  0.5296E+01  0.5295E+01
     -1.446  0.1017E+02  0.1017E+02  0.6176E+01  0.6175E+01
     -1.360  0.8910E+01  0.8921E+01  0.6948E+01  0.6947E+01
     -1.273  0.6053E+00  0.6098E+00  0.7000E+01  0.7000E+01
     -1.186  0.2712E-03  0.2755E-03  0.7000E+01  0.7000E+01
     -1.100  0.4098E-09  0.4199E-09  0.7000E+01  0.7000E+01
     -1.013  0.0000E+00  0.0000E+00  0.7000E+01  0.7000E+01
     -0.927  0.0000E+00  0.0000E+00  0.7000E+01  0.7000E+01
     -0.840  0.4963E-09  0.4839E-09  0.7000E+01  0.7000E+01
     -0.754  0.3068E-03  0.3018E-03  0.7000E+01  0.7000E+01
     -0.667  0.6416E+00  0.6367E+00  0.7056E+01  0.7055E+01
     -0.580  0.8672E+01  0.8664E+01  0.7806E+01  0.7805E+01
     -0.494  0.8792E+01  0.8773E+01  0.8567E+01  0.8565E+01
     -0.407  0.2380E+02  0.2381E+02  0.1063E+02  0.1063E+02
     -0.321  0.1782E+02  0.1782E+02  0.1217E+02  0.1217E+02
     -0.234  0.1881E+02  0.1881E+02  0.1380E+02  0.1380E+02
     -0.148  0.2199E+02  0.2201E+02  0.1570E+02  0.1570E+02
     -0.061  0.8476E+01  0.8480E+01  0.1644E+02  0.1644E+02
      0.025  0.6862E+01  0.6874E+01  0.1703E+02  0.1703E+02
      0.112  0.8462E+01  0.8455E+01  0.1776E+02  0.1776E+02
      0.199  0.3477E+01  0.3482E+01  0.1806E+02  0.1806E+02
      0.285  0.8786E+01  0.8779E+01  0.1882E+02  0.1882E+02
      0.372  0.2022E+01  0.2036E+01  0.1900E+02  0.1900E+02
      0.458  0.4167E-02  0.4235E-02  0.1900E+02  0.1900E+02
      0.545  0.3208E-07  0.3295E-07  0.1900E+02  0.1900E+02
      0.631  0.0000E+00  0.0000E+00  0.1900E+02  0.1900E+02
      0.718  0.8705E-08  0.8464E-08  0.1900E+02  0.1900E+02
      0.805  0.1888E-02  0.1855E-02  0.1900E+02  0.1900E+02
      0.891  0.1599E+01  0.1587E+01  0.1914E+02  0.1914E+02
      0.978  0.1650E+02  0.1648E+02  0.2057E+02  0.2056E+02
      1.064  0.1826E+02  0.1826E+02  0.2215E+02  0.2214E+02
      1.151  0.2064E+02  0.2065E+02  0.2393E+02  0.2393E+02
      1.237  0.1122E+02  0.1123E+02  0.2490E+02  0.2490E+02
      1.324  0.9212E+01  0.9208E+01  0.2570E+02  0.2570E+02
      1.410  0.1029E+02  0.1029E+02  0.2659E+02  0.2659E+02
      1.497  0.4665E+01  0.4677E+01  0.2700E+02  0.2700E+02
      1.584  0.4168E-01  0.4200E-01  0.2700E+02  0.2700E+02
      1.670  0.1629E-05  0.1652E-05  0.2700E+02  0.2700E+02
      1.757  0.1949E-12  0.1975E-12  0.2700E+02  0.2700E+02
      1.843  0.0000E+00  0.0000E+00  0.2700E+02  0.2700E+02
      1.930  0.0000E+00  0.0000E+00  0.2700E+02  0.2700E+02
      2.016  0.0000E+00  0.0000E+00  0.2700E+02  0.2700E+02
      2.103  0.1062E-07  0.1038E-07  0.2700E+02  0.2700E+02
      2.190  0.2360E-02  0.2328E-02  0.2700E+02  0.2700E+02
      2.276  0.2149E+01  0.2136E+01  0.2719E+02  0.2719E+02
      2.363  0.1806E+02  0.1805E+02  0.2875E+02  0.2875E+02
      2.449  0.1386E+02  0.1385E+02  0.2995E+02  0.2995E+02
      2.536  0.1695E+02  0.1695E+02  0.3142E+02  0.3141E+02
      2.622  0.9955E+01  0.9962E+01  0.3228E+02  0.3228E+02
      2.709  0.8006E+01  0.8017E+01  0.3297E+02  0.3297E+02
      2.795  0.3448E+00  0.3475E+00  0.3300E+02  0.3300E+02
      2.882  0.8560E-04  0.8695E-04  0.3300E+02  0.3300E+02
      2.969  0.6955E-10  0.7123E-10  0.3300E+02  0.3300E+02
      3.055  0.1924E-14  0.1924E-14  0.3300E+02  0.3300E+02
      3.142  0.6699E-07  0.6559E-07  0.3300E+02  0.3300E+02
      3.228  0.6525E-02  0.6443E-02  0.3300E+02  0.3300E+02
      3.315  0.2603E+01  0.2589E+01  0.3323E+02  0.3322E+02
      3.401  0.1698E+02  0.1696E+02  0.3470E+02  0.3469E+02
      3.488  0.1986E+02  0.1986E+02  0.3641E+02  0.3641E+02
      3.575  0.2646E+02  0.2647E+02  0.3871E+02  0.3870E+02
      3.661  0.2828E+02  0.2826E+02  0.4115E+02  0.4115E+02
      3.748  0.3415E+02  0.3416E+02  0.4411E+02  0.4411E+02
      3.834  0.2659E+02  0.2660E+02  0.4641E+02  0.4641E+02
      3.921  0.3230E+02  0.3228E+02  0.4921E+02  0.4920E+02
      4.007  0.2364E+02  0.2367E+02  0.5125E+02  0.5125E+02
      4.094  0.1385E+02  0.1385E+02  0.5245E+02  0.5245E+02
      4.180  0.1568E+02  0.1568E+02  0.5381E+02  0.5381E+02
      4.267  0.1817E+02  0.1816E+02  0.5538E+02  0.5538E+02
      4.354  0.7100E+01  0.7129E+01  0.5600E+02  0.5600E+02
      4.440  0.4329E+01  0.4311E+01  0.5637E+02  0.5637E+02
      4.527  0.7057E+01  0.7074E+01  0.5698E+02  0.5698E+02
      4.613  0.1953E+00  0.1975E+00  0.5700E+02  0.5700E+02
      4.700  0.3757E+00  0.3729E+00  0.5703E+02  0.5703E+02
      4.786  0.8732E+01  0.8715E+01  0.5779E+02  0.5779E+02
      4.873  0.2510E+02  0.2506E+02  0.5996E+02  0.5996E+02
      4.960  0.3190E+02  0.3192E+02  0.6272E+02  0.6272E+02
      5.046  0.2317E+02  0.2317E+02  0.6473E+02  0.6473E+02
      5.133  0.3577E+02  0.3575E+02  0.6783E+02  0.6782E+02
      5.219  0.3750E+02  0.3752E+02  0.7107E+02  0.7107E+02
      5.306  0.1868E+02  0.1870E+02  0.7269E+02  0.7269E+02
      5.392  0.1862E+02  0.1861E+02  0.7430E+02  0.7430E+02
      5.479  0.1650E+02  0.1652E+02  0.7573E+02  0.7573E+02
      5.565  0.1184E+02  0.1183E+02  0.7675E+02  0.7675E+02
      5.652  0.1552E+02  0.1552E+02  0.7810E+02  0.7809E+02
      5.739  0.1201E+02  0.1203E+02  0.7914E+02  0.7914E+02
      5.825  0.9526E+01  0.9532E+01  0.7996E+02  0.7996E+02
      5.912  0.8708E+01  0.8704E+01  0.8071E+02  0.8071E+02
      5.998  0.3280E+01  0.3292E+01  0.8100E+02  0.8100E+02
      6.085  0.1480E-01  0.1495E-01  0.8100E+02  0.8100E+02
      6.171  0.2685E-06  0.2731E-06  0.8100E+02  0.8100E+02
      6.258  0.1539E-13  0.1539E-13  0.8100E+02  0.8100E+02
      6.345  0.0000E+00  0.0000E+00  0.8100E+02  0.8100E+02
      6.431  0.0000E+00  0.0000E+00  0.8100E+02  0.8100E+02
      6.518  0.0000E+00  0.0000E+00  0.8100E+02  0.8100E+02
      6.604  0.0000E+00  0.0000E+00  0.8100E+02  0.8100E+02
      6.691  0.0000E+00  0.0000E+00  0.8100E+02  0.8100E+02
      6.777  0.0000E+00  0.0000E+00  0.8100E+02  0.8100E+02
      6.864  0.0000E+00  0.0000E+00  0.8100E+02  0.8100E+02
      6.950  0.0000E+00  0.0000E+00  0.8100E+02  0.8100E+02
      7.037  0.0000E+00  0.0000E+00  0.8100E+02  0.8100E+02
      7.124  0.5246E-12  0.5079E-12  0.8100E+02  0.8100E+02
      7.210  0.3222E-05  0.3151E-05  0.8100E+02  0.8100E+02
      7.297  0.6101E-01  0.6027E-01  0.8101E+02  0.8101E+02
      7.383  0.5367E+01  0.5347E+01  0.8147E+02  0.8147E+02
      7.470  0.1357E+02  0.1357E+02  0.8264E+02  0.8264E+02
      7.556  0.1840E+02  0.1839E+02  0.8424E+02  0.8423E+02
      7.643  0.2384E+02  0.2384E+02  0.8630E+02  0.8630E+02
      7.730  0.2179E+02  0.2179E+02  0.8819E+02  0.8818E+02
      7.816  0.1837E+02  0.1838E+02  0.8978E+02  0.8978E+02
      7.903  0.1678E+02  0.1676E+02  0.9123E+02  0.9123E+02
      7.989  0.1570E+02  0.1571E+02  0.9259E+02  0.9259E+02
      8.076  0.4715E+01  0.4734E+01  0.9300E+02  0.9300E+02
      8.162  0.3983E-01  0.4031E-01  0.9300E+02  0.9300E+02
      8.249  0.1149E-02  0.1131E-02  0.9300E+02  0.9300E+02
      8.335  0.1190E+01  0.1181E+01  0.9310E+02  0.9310E+02
      8.422  0.1246E+02  0.1245E+02  0.9418E+02  0.9418E+02
      8.509  0.1374E+02  0.1375E+02  0.9537E+02  0.9537E+02
      8.595  0.1998E+02  0.1996E+02  0.9710E+02  0.9710E+02
      8.682  0.2242E+02  0.2243E+02  0.9904E+02  0.9904E+02
      8.768  0.1743E+02  0.1742E+02  0.1006E+03  0.1005E+03
      8.855  0.3058E+02  0.3058E+02  0.1032E+03  0.1032E+03
      8.941  0.2340E+02  0.2340E+02  0.1052E+03  0.1052E+03
      9.028  0.2320E+02  0.2321E+02  0.1072E+03  0.1072E+03
      9.115  0.2353E+02  0.2353E+02  0.1093E+03  0.1093E+03
      9.201  0.2726E+02  0.2725E+02  0.1116E+03  0.1116E+03
      9.288  0.2582E+02  0.2583E+02  0.1139E+03  0.1139E+03
      9.374  0.2464E+02  0.2465E+02  0.1160E+03  0.1160E+03
      9.461  0.2224E+02  0.2225E+02  0.1179E+03  0.1179E+03
      9.547  0.1909E+02  0.1910E+02  0.1196E+03  0.1196E+03
      9.634  0.1247E+02  0.1247E+02  0.1207E+03  0.1207E+03
      9.720  0.1578E+02  0.1579E+02  0.1220E+03  0.1220E+03
      9.807  0.1032E+02  0.1033E+02  0.1229E+03  0.1229E+03
      9.894  0.1010E+01  0.1018E+01  0.1230E+03  0.1230E+03
      9.980  0.3323E+01  0.3311E+01  0.1233E+03  0.1233E+03
     10.067  0.1030E+02  0.1030E+02  0.1242E+03  0.1242E+03
     10.153  0.1765E+02  0.1763E+02  0.1257E+03  0.1257E+03
     10.240  0.2832E+02  0.2831E+02  0.1282E+03  0.1282E+03
     10.326  0.2663E+02  0.2665E+02  0.1305E+03  0.1305E+03
     10.413  0.2042E+02  0.2041E+02  0.1322E+03  0.1322E+03
     10.500  0.2816E+02  0.2816E+02  0.1347E+03  0.1347E+03
     10.586  0.2988E+02  0.2988E+02  0.1373E+03  0.1373E+03
     10.673  0.2506E+02  0.2507E+02  0.1394E+03  0.1394E+03
     10.759  0.1370E+02  0.1369E+02  0.1406E+03  0.1406E+03
     10.846  0.2634E+02  0.2634E+02  0.1429E+03  0.1429E+03
     10.932  0.1964E+02  0.1966E+02  0.1446E+03  0.1446E+03
     11.019  0.1317E+02  0.1318E+02  0.1457E+03  0.1457E+03
     11.105  0.3207E+01  0.3223E+01  0.1460E+03  0.1460E+03
     11.192  0.6416E+01  0.6401E+01  0.1466E+03  0.1466E+03
     11.279  0.5594E+01  0.5605E+01  0.1470E+03  0.1470E+03
     11.365  0.1021E+02  0.1019E+02  0.1479E+03  0.1479E+03
     11.452  0.2041E+02  0.2040E+02  0.1497E+03  0.1497E+03
     11.538  0.2374E+02  0.2374E+02  0.1518E+03  0.1518E+03
     11.625  0.2617E+02  0.2617E+02  0.1540E+03  0.1540E+03
     11.711  0.2416E+02  0.2417E+02  0.1561E+03  0.1561E+03
     11.798  0.1417E+02  0.1418E+02  0.1573E+03  0.1573E+03
     11.885  0.2110E+02  0.2108E+02  0.1592E+03  0.1592E+03
     11.971  0.3788E+02  0.3787E+02  0.1624E+03  0.1624E+03
     12.058  0.1937E+02  0.1940E+02  0.1641E+03  0.1641E+03
     12.144  0.2428E+02  0.2427E+02  0.1662E+03  0.1662E+03
     12.231  0.1832E+02  0.1833E+02  0.1678E+03  0.1678E+03
     12.317  0.1842E+02  0.1843E+02  0.1694E+03  0.1694E+03
     12.404  0.7077E+01  0.7093E+01  0.1700E+03  0.1700E+03
     12.490  0.7747E+01  0.7735E+01  0.1707E+03  0.1707E+03
     12.577  0.3595E+01  0.3610E+01  0.1710E+03  0.1710E+03
     12.664  0.8025E-01  0.7983E-01  0.1710E+03  0.1710E+03
     12.750  0.5217E+01  0.5201E+01  0.1715E+03  0.1715E+03
     12.837  0.6356E+01  0.6370E+01  0.1720E+03  0.1720E+03
     12.923  0.7157E+01  0.7142E+01  0.1726E+03  0.1726E+03
     13.010  0.6362E+01  0.6368E+01  0.1732E+03  0.1732E+03
     13.096  0.9965E+01  0.9964E+01  0.1740E+03  0.1740E+03
     13.183  0.1002E+02  0.1002E+02  0.1749E+03  0.1749E+03
     13.270  0.1147E+02  0.1145E+02  0.1759E+03  0.1759E+03
     13.356  0.1984E+02  0.1984E+02  0.1776E+03  0.1776E+03
     13.443  0.1496E+02  0.1498E+02  0.1789E+03  0.1789E+03
     13.529  0.1007E+01  0.1013E+01  0.1790E+03  0.1790E+03
     13.616  0.4604E+00  0.4564E+00  0.1790E+03  0.1790E+03
     13.702  0.9428E+01  0.9410E+01  0.1799E+03  0.1799E+03
     13.789  0.2129E+02  0.2127E+02  0.1817E+03  0.1817E+03
     13.875  0.2029E+02  0.2031E+02  0.1835E+03  0.1835E+03
     13.962  0.1080E+02  0.1080E+02  0.1844E+03  0.1844E+03
     14.049  0.2034E+02  0.2033E+02  0.1862E+03  0.1861E+03
     14.135  0.2019E+02  0.2021E+02  0.1879E+03  0.1879E+03
     14.222  0.1247E+02  0.1245E+02  0.1890E+03  0.1890E+03
     14.308  0.2020E+02  0.2020E+02  0.1907E+03  0.1907E+03
     14.395  0.1325E+02  0.1324E+02  0.1919E+03  0.1919E+03
     14.481  0.2248E+02  0.2247E+02  0.1938E+03  0.1938E+03
     14.568  0.1563E+02  0.1566E+02  0.1952E+03  0.1952E+03
     14.655  0.1195E+02  0.1194E+02  0.1962E+03  0.1962E+03
     14.741  0.2068E+02  0.2068E+02  0.1980E+03  0.1980E+03
     14.828  0.1701E+02  0.1698E+02  0.1995E+03  0.1995E+03
     14.914  0.1643E+02  0.1643E+02  0.2009E+03  0.2009E+03
     15.001  0.2091E+02  0.2094E+02  0.2027E+03  0.2027E+03
     15.087  0.2546E+02  0.2544E+02  0.2049E+03  0.2049E+03
     15.174  0.2711E+02  0.2712E+02  0.2073E+03  0.2072E+03
     15.261  0.2577E+02  0.2576E+02  0.2095E+03  0.2095E+03
     15.347  0.2555E+02  0.2556E+02  0.2117E+03  0.2117E+03
     15.434  0.2182E+02  0.2181E+02  0.2136E+03  0.2136E+03
     15.520  0.2548E+02  0.2547E+02  0.2158E+03  0.2158E+03
     15.607  0.2847E+02  0.2848E+02  0.2183E+03  0.2182E+03
     15.693  0.2606E+02  0.2606E+02  0.2205E+03  0.2205E+03
     15.780  0.3740E+02  0.3739E+02  0.2237E+03  0.2237E+03
     15.866  0.3426E+02  0.3426E+02  0.2267E+03  0.2267E+03
     15.953  0.3168E+02  0.3168E+02  0.2295E+03  0.2294E+03
     16.040  0.2202E+02  0.2204E+02  0.2314E+03  0.2314E+03
     16.126  0.2369E+02  0.2368E+02  0.2334E+03  0.2334E+03
     16.213  0.2456E+02  0.2456E+02  0.2355E+03  0.2355E+03
     16.299  0.2388E+02  0.2389E+02  0.2376E+03  0.2376E+03
     16.386  0.1661E+02  0.1660E+02  0.2390E+03  0.2390E+03
     16.472  0.2051E+02  0.2053E+02  0.2408E+03  0.2408E+03
     16.559  0.2254E+02  0.2251E+02  0.2428E+03  0.2428E+03
     16.646  0.1841E+02  0.1844E+02  0.2444E+03  0.2444E+03
     16.732  0.1909E+02  0.1908E+02  0.2460E+03  0.2460E+03
     16.819  0.1304E+02  0.1306E+02  0.2471E+03  0.2471E+03
     16.905  0.1871E+02  0.1869E+02  0.2488E+03  0.2488E+03
     16.992  0.1318E+02  0.1320E+02  0.2499E+03  0.2499E+03
     17.078  0.4436E+01  0.4431E+01  0.2503E+03  0.2503E+03
     17.165  0.7899E+01  0.7909E+01  0.2510E+03  0.2510E+03
     17.251  0.3431E+00  0.3455E+00  0.2510E+03  0.2510E+03
     17.338  0.8477E-04  0.8598E-04  0.2510E+03  0.2510E+03
     17.425  0.6853E-10  0.7003E-10  0.2510E+03  0.2510E+03
     17.511  0.0000E+00  0.0000E+00  0.2510E+03  0.2510E+03
     17.598  0.3335E-13  0.3271E-13  0.2510E+03  0.2510E+03
     17.684  0.4827E-06  0.4726E-06  0.2510E+03  0.2510E+03
     17.771  0.2119E-01  0.2093E-01  0.2510E+03  0.2510E+03
     17.857  0.4415E+01  0.4394E+01  0.2514E+03  0.2514E+03
     17.944  0.1632E+02  0.1633E+02  0.2528E+03  0.2528E+03
     18.031  0.6232E+01  0.6231E+01  0.2533E+03  0.2533E+03
     18.117  0.1638E+02  0.1639E+02  0.2548E+03  0.2548E+03
     18.204  0.2834E+01  0.2847E+01  0.2550E+03  0.2550E+03
     18.290  0.2422E+01  0.2407E+01  0.2552E+03  0.2552E+03
     18.377  0.1142E+02  0.1142E+02  0.2562E+03  0.2562E+03
     18.463  0.8918E+01  0.8929E+01  0.2570E+03  0.2570E+03
     18.550  0.7426E+01  0.7405E+01  0.2576E+03  0.2576E+03
     18.636  0.1477E+02  0.1478E+02  0.2589E+03  0.2589E+03
     18.723  0.9992E+01  0.9988E+01  0.2598E+03  0.2598E+03
     18.810  0.1833E+02  0.1829E+02  0.2613E+03  0.2613E+03
     18.896  0.3389E+02  0.3390E+02  0.2643E+03  0.2643E+03
     18.983  0.2498E+02  0.2499E+02  0.2664E+03  0.2664E+03
     19.069  0.2689E+02  0.2690E+02  0.2688E+03  0.2688E+03
     19.156  0.2889E+02  0.2887E+02  0.2713E+03  0.2713E+03
     19.242  0.3256E+02  0.3257E+02  0.2741E+03  0.2741E+03
     19.329  0.2879E+02  0.2878E+02  0.2766E+03  0.2766E+03
     19.416  0.3930E+02  0.3929E+02  0.2800E+03  0.2800E+03
     19.502  0.3529E+02  0.3532E+02  0.2830E+03  0.2830E+03
     19.589  0.2712E+02  0.2710E+02  0.2854E+03  0.2854E+03
     19.675  0.3102E+02  0.3086E+02  0.2881E+03  0.2880E+03
     19.762  0.2660E+02  0.2640E+02  0.2904E+03  0.2903E+03
     19.848  0.3085E+02  0.3114E+02  0.2930E+03  0.2930E+03
     19.935  0.1995E+02  0.2029E+02  0.2948E+03  0.2948E+03
     20.021  0.2452E+02  0.2268E+02  0.2969E+03  0.2967E+03
     20.108  0.1862E+02  0.2127E+02  0.2985E+03  0.2986E+03
     20.195  0.1599E+02  0.1637E+02  0.2999E+03  0.3000E+03
     20.281  0.1676E+02  0.1351E+02  0.3013E+03  0.3012E+03
     20.368  0.1537E+02  0.1614E+02  0.3027E+03  0.3026E+03
     20.454  0.3820E+01  0.1139E+02  0.3030E+03  0.3036E+03
     20.541  0.2172E+01  0.5047E+01  0.3032E+03  0.3040E+03
     20.627  0.8707E+01  0.5296E-01  0.3039E+03  0.3040E+03
     20.714  0.6883E+00  0.2499E-05  0.3040E+03  0.3040E+03
     20.801  0.3561E-03  0.3617E-12  0.3040E+03  0.3040E+03
     20.887  0.6260E-09  0.0000E+00  0.3040E+03  0.3040E+03
     20.974  0.0000E+00  0.0000E+00  0.3040E+03  0.3040E+03
     21.060  0.0000E+00  0.0000E+00  0.3040E+03  0.3040E+03
     21.147  0.0000E+00  0.0000E+00  0.3040E+03  0.3040E+03
     21.233  0.0000E+00  0.0000E+00  0.3040E+03  0.3040E+03
     21.320  0.0000E+00  0.0000E+00  0.3040E+03  0.3040E+03
     21.406  0.0000E+00  0.0000E+00  0.3040E+03  0.3040E+03
     21.493  0.0000E+00  0.0000E+00  0.3040E+03  0.3040E+03
     21.580  0.0000E+00  0.0000E+00  0.3040E+03  0.3040E+03
     21.666  0.0000E+00  0.0000E+00  0.3040E+03  0.3040E+03
     21.753  0.0000E+00  0.0000E+00  0.3040E+03  0.3040E+03
