  100  100    1    2
  0.1064800E+02  0.1021149E-08  0.1021149E-08  0.1021149E-08  0.5000000E-15
  1.000000000000000E-004
  CAR 
 unknown system                          
    400      1    304
 
  0.0000000E+00  0.0000000E+00  0.0000000E+00  0.1000000E+01
    1       -3.035714     -3.035591   1.000000   1.000000
    2       -1.888224     -1.888085   1.000000   1.000000
    3       -1.813012     -1.812885   1.000000   1.000000
    4       -1.682813     -1.682683   1.000000   1.000000
    5       -1.658428     -1.658333   1.000000   1.000000
    6       -1.513689     -1.513536   1.000000   1.000000
    7       -1.416888     -1.416759   1.000000   1.000000
    8       -0.610717     -0.610583   1.000000   1.000000
    9       -0.476783     -0.476658   1.000000   1.000000
   10       -0.468419     -0.468268   1.000000   1.000000
   11       -0.420104     -0.419992   1.000000   1.000000
   12       -0.349504     -0.349378   1.000000   1.000000
   13       -0.308785     -0.308672   1.000000   1.000000
   14       -0.242909     -0.242787   1.000000   1.000000
   15       -0.201559     -0.201393   1.000000   1.000000
   16       -0.173278     -0.173150   1.000000   1.000000
   17       -0.055537     -0.055407   1.000000   1.000000
   18        0.086699      0.086814   1.000000   1.000000
   19        0.252163      0.252321   1.000000   1.000000
   20        0.931639      0.931799   1.000000   1.000000
   21        0.969969      0.970080   1.000000   1.000000
   22        1.028099      1.028232   1.000000   1.000000
   23        1.094614      1.094741   1.000000   1.000000
   24        1.107639      1.107796   1.000000   1.000000
   25        1.195849      1.195995   1.000000   1.000000
   26        1.306492      1.306620   1.000000   1.000000
   27        1.402037      1.402128   1.000000   1.000000
   28        2.315775      2.315903   1.000000   1.000000
   29        2.332487      2.332588   1.000000   1.000000
   30        2.425466      2.425595   1.000000   1.000000
   31        2.479715      2.479881   1.000000   1.000000
   32        2.538311      2.538426   1.000000   1.000000
   33        2.642331      2.642453   1.000000   1.000000
   34        3.343441      3.343567   1.000000   1.000000
   35        3.390313      3.390472   1.000000   1.000000
   36        3.442871      3.443004   1.000000   1.000000
   37        3.504159      3.504275   1.000000   1.000000
   38        3.520207      3.520344   1.000000   1.000000
   39        3.565779      3.565880   1.000000   1.000000
   40        3.608674      3.608816   1.000000   1.000000
   41        3.644383      3.644504   1.000000   1.000000
   42        3.678608      3.678742   1.000000   1.000000
   43        3.690201      3.690317   1.000000   1.000000
   44        3.730574      3.730708   1.000000   1.000000
   45        3.754113      3.754246   1.000000   1.000000
   46        3.800005      3.800120   1.000000   1.000000
   47        3.835291      3.835416   1.000000   1.000000
   48        3.884507      3.884649   1.000000   1.000000
   49        3.909283      3.909401   1.000000   1.000000
   50        3.917916      3.918033   1.000000   1.000000
   51        3.949685      3.949823   1.000000   1.000000
   52        4.024925      4.025080   1.000000   1.000000
   53        4.099052      4.099178   1.000000   1.000000
   54        4.157515      4.157637   1.000000   1.000000
   55        4.233116      4.233244   1.000000   1.000000
   56        4.262359      4.262511   1.000000   1.000000
   57        4.451683      4.451842   1.000000   1.000000
   58        4.765083      4.765204   1.000000   1.000000
   59        4.844993      4.845149   1.000000   1.000000
   60        4.872613      4.872728   1.000000   1.000000
   61        4.878133      4.878274   1.000000   1.000000
   62        4.899985      4.900090   1.000000   1.000000
   63        4.959535      4.959676   1.000000   1.000000
   64        4.979857      4.979962   1.000000   1.000000
   65        5.057539      5.057666   1.000000   1.000000
   66        5.063938      5.064066   1.000000   1.000000
   67        5.097320      5.097464   1.000000   1.000000
   68        5.128084      5.128229   1.000000   1.000000
   69        5.146178      5.146311   1.000000   1.000000
   70        5.182093      5.182236   1.000000   1.000000
   71        5.195986      5.196117   1.000000   1.000000
   72        5.220884      5.220993   1.000000   1.000000
   73        5.294041      5.294169   1.000000   1.000000
   74        5.360065      5.360235   1.000000   1.000000
   75        5.396465      5.396610   1.000000   1.000000
   76        5.459093      5.459215   1.000000   1.000000
   77        5.547705      5.547841   1.000000   1.000000
   78        5.620360      5.620486   1.000000   1.000000
   79        5.672350      5.672496   1.000000   1.000000
   80        5.772721      5.772853   1.000000   1.000000
   81        5.891661      5.891767   1.000000   1.000000
   82        7.387131      7.387282   1.000000   1.000000
   83        7.461917      7.462037   1.000000   1.000000
   84        7.523737      7.523870   1.000000   1.000000
   85        7.572956      7.573075   1.000000   1.000000
   86        7.602808      7.602933   1.000000   1.000000
   87        7.650560      7.650709   1.000000   1.000000
   88        7.707759      7.707890   1.000000   1.000000
   89        7.735432      7.735542   1.000000   1.000000
   90        7.793531      7.793648   1.000000   1.000000
   91        7.875433      7.875556   1.000000   1.000000
   92        7.908276      7.908421   1.000000   1.000000
   93        7.980267      7.980409   1.000000   1.000000
   94        8.380467      8.380608   1.000000   1.000000
   95        8.440667      8.440801   1.000000   1.000000
   96        8.520779      8.520893   1.000000   1.000000
   97        8.574048      8.574158   1.000000   1.000000
   98        8.613244      8.613363   1.000000   1.000000
   99        8.642905      8.643043   1.000000   1.000000
  100        8.711263      8.711389   1.000000   1.000000
  101        8.779114      8.779242   1.000000   1.000000
  102        8.804683      8.804815   1.000000   1.000000
  103        8.820696      8.820820   1.000000   1.000000
  104        8.865350      8.865488   1.000000   1.000000
  105        8.906193      8.906309   1.000000   1.000000
  106        8.958907      8.959069   1.000000   1.000000
  107        8.989719      8.989831   1.000000   1.000000
  108        9.044082      9.044219   1.000000   1.000000
  109        9.080392      9.080502   1.000000   1.000000
  110        9.125492      9.125616   1.000000   1.000000
  111        9.167000      9.167133   1.000000   1.000000
  112        9.196029      9.196150   1.000000   1.000000
  113        9.227000      9.227132   1.000000   1.000000
  114        9.271921      9.272056   1.000000   1.000000
  115        9.317287      9.317429   1.000000   1.000000
  116        9.350462      9.350584   1.000000   1.000000
  117        9.397554      9.397662   1.000000   1.000000
  118        9.432982      9.433144   1.000000   1.000000
  119        9.496302      9.496442   1.000000   1.000000
  120        9.534720      9.534846   1.000000   1.000000
  121        9.629490      9.629640   1.000000   1.000000
  122        9.677825      9.677969   1.000000   1.000000
  123        9.758771      9.758923   1.000000   1.000000
  124        9.999904     10.000018   1.000000   1.000000
  125       10.096544     10.096676   1.000000   1.000000
  126       10.148795     10.148925   1.000000   1.000000
  127       10.186262     10.186371   1.000000   1.000000
  128       10.218525     10.218668   1.000000   1.000000
  129       10.248667     10.248818   1.000000   1.000000
  130       10.287601     10.287700   1.000000   1.000000
  131       10.319056     10.319197   1.000000   1.000000
  132       10.393298     10.393406   1.000000   1.000000
  133       10.419183     10.419309   1.000000   1.000000
  134       10.460677     10.460824   1.000000   1.000000
  135       10.504972     10.505079   1.000000   1.000000
  136       10.515663     10.515782   1.000000   1.000000
  137       10.556763     10.556858   1.000000   1.000000
  138       10.597715     10.597879   1.000000   1.000000
  139       10.628942     10.629068   1.000000   1.000000
  140       10.668442     10.668562   1.000000   1.000000
  141       10.768036     10.768172   1.000000   1.000000
  142       10.790412     10.790591   1.000000   1.000000
  143       10.828451     10.828595   1.000000   1.000000
  144       10.868244     10.868365   1.000000   1.000000
  145       10.923909     10.924084   1.000000   1.000000
  146       10.996597     10.996753   1.000000   1.000000
  147       11.186224     11.186347   1.000000   1.000000
  148       11.335400     11.335531   1.000000   1.000000
  149       11.408377     11.408511   1.000000   1.000000
  150       11.436080     11.436207   1.000000   1.000000
  151       11.493687     11.493853   1.000000   1.000000
  152       11.523006     11.523130   1.000000   1.000000
  153       11.571205     11.571313   1.000000   1.000000
  154       11.619257     11.619372   1.000000   1.000000
  155       11.625850     11.625996   1.000000   1.000000
  156       11.690123     11.690248   1.000000   1.000000
  157       11.720690     11.720816   1.000000   1.000000
  158       11.815646     11.815784   1.000000   1.000000
  159       11.857895     11.858032   1.000000   1.000000
  160       11.910996     11.911100   1.000000   1.000000
  161       11.925813     11.925946   1.000000   1.000000
  162       11.942134     11.942270   1.000000   1.000000
  163       11.960655     11.960806   1.000000   1.000000
  164       12.003522     12.003659   1.000000   1.000000
  165       12.094706     12.094864   1.000000   1.000000
  166       12.125248     12.125356   1.000000   1.000000
  167       12.137061     12.137211   1.000000   1.000000
  168       12.217701     12.217792   1.000000   1.000000
  169       12.265418     12.265567   1.000000   1.000000
  170       12.319395     12.319490   1.000000   1.000000
  171       12.473250     12.473379   1.000000   1.000000
  172       12.754010     12.754141   1.000000   1.000000
  173       12.911928     12.912071   1.000000   1.000000
  174       13.042236     13.042361   1.000000   1.000000
  175       13.141246     13.141363   1.000000   1.000000
  176       13.252075     13.252221   1.000000   1.000000
  177       13.299072     13.299191   1.000000   1.000000
  178       13.353802     13.353917   1.000000   1.000000
  179       13.393296     13.393401   1.000000   1.000000
  180       13.677815     13.677958   1.000000   1.000000
  181       13.750931     13.751056   1.000000   1.000000
  182       13.780019     13.780161   1.000000   1.000000
  183       13.814605     13.814738   1.000000   1.000000
  184       13.875571     13.875705   1.000000   1.000000
  185       13.976524     13.976644   1.000000   1.000000
  186       14.018617     14.018745   1.000000   1.000000
  187       14.075042     14.075181   1.000000   1.000000
  188       14.086523     14.086650   1.000000   1.000000
  189       14.203478     14.203605   1.000000   1.000000
  190       14.245826     14.245929   1.000000   1.000000
  191       14.287055     14.287178   1.000000   1.000000
  192       14.370381     14.370518   1.000000   1.000000
  193       14.439990     14.440113   1.000000   1.000000
  194       14.471687     14.471798   1.000000   1.000000
  195       14.496920     14.497048   1.000000   1.000000
  196       14.598161     14.598293   1.000000   1.000000
  197       14.686909     14.687017   1.000000   1.000000
  198       14.704114     14.704251   0.999996   0.999996
  199       14.770964     14.771065   0.995134   0.995093
  200       14.827857     14.828177   0.835468   0.833216
  201       14.897208     14.897551   0.162180   0.159812
  202       14.945618     14.945711   0.009267   0.009201
  203       14.983069     14.983181   0.000320   0.000316
  204       15.059350     15.059465   0.000000   0.000000
  205       15.077327     15.077455   0.000000   0.000000
  206       15.089707     15.089818   0.000000   0.000000
  207       15.154824     15.154969   0.000000   0.000000
  208       15.174113     15.174216   0.000000   0.000000
  209       15.230227     15.230358   0.000000   0.000000
  210       15.268572     15.268710   0.000000   0.000000
  211       15.282349     15.282481   0.000000   0.000000
  212       15.345495     15.345619   0.000000   0.000000
  213       15.374739     15.374875   0.000000   0.000000
  214       15.435938     15.436072   0.000000   0.000000
  215       15.470570     15.470718   0.000000   0.000000
  216       15.511990     15.512147   0.000000   0.000000
  217       15.544499     15.544642   0.000000   0.000000
  218       15.584050     15.584166   0.000000   0.000000
  219       15.617621     15.617745   0.000000   0.000000
  220       15.639899     15.640026   0.000000   0.000000
  221       15.711911     15.712047   0.000000   0.000000
  222       15.729504     15.729602   0.000000   0.000000
  223       15.734119     15.734232   0.000000   0.000000
  224       15.772464     15.772588   0.000000   0.000000
  225       15.802045     15.802188   0.000000   0.000000
  226       15.828925     15.829097   0.000000   0.000000
  227       15.855707     15.855863   0.000000   0.000000
  228       15.893028     15.893141   0.000000   0.000000
  229       15.927647     15.927774   0.000000   0.000000
  230       15.956333     15.956462   0.000000   0.000000
  231       15.974247     15.974381   0.000000   0.000000
  232       16.058105     16.058242   0.000000   0.000000
  233       16.085413     16.085521   0.000000   0.000000
  234       16.133278     16.133420   0.000000   0.000000
  235       16.165280     16.165415   0.000000   0.000000
  236       16.211131     16.211246   0.000000   0.000000
  237       16.260664     16.260801   0.000000   0.000000
  238       16.277429     16.277541   0.000000   0.000000
  239       16.380811     16.380944   0.000000   0.000000
  240       16.390740     16.390872   0.000000   0.000000
  241       16.447311     16.447456   0.000000   0.000000
  242       16.529953     16.530069   0.000000   0.000000
  243       16.547387     16.547516   0.000000   0.000000
  244       16.573177     16.573328   0.000000   0.000000
  245       16.658569     16.658677   0.000000   0.000000
  246       16.713680     16.713804   0.000000   0.000000
  247       16.747253     16.747368   0.000000   0.000000
  248       16.858016     16.858125   0.000000   0.000000
  249       16.883690     16.883827   0.000000   0.000000
  250       16.945950     16.946065   0.000000   0.000000
  251       17.098234     17.098345   0.000000   0.000000
  252       17.873747     17.873883   0.000000   0.000000
  253       17.911708     17.911840   0.000000   0.000000
  254       18.050226     18.050326   0.000000   0.000000
  255       18.089295     18.089410   0.000000   0.000000
  256       18.318871     18.319029   0.000000   0.000000
  257       18.400715     18.400796   0.000000   0.000000
  258       18.547674     18.547813   0.000000   0.000000
  259       18.597699     18.597826   0.000000   0.000000
  260       18.700902     18.701044   0.000000   0.000000
  261       18.798807     18.798931   0.000000   0.000000
  262       18.811871     18.812006   0.000000   0.000000
  263       18.837719     18.837868   0.000000   0.000000
  264       18.877351     18.877473   0.000000   0.000000
  265       18.892395     18.892527   0.000000   0.000000
  266       18.943515     18.943615   0.000000   0.000000
  267       18.998264     18.998405   0.000000   0.000000
  268       19.008781     19.008908   0.000000   0.000000
  269       19.055697     19.055807   0.000000   0.000000
  270       19.107564     19.107697   0.000000   0.000000
  271       19.131734     19.131878   0.000000   0.000000
  272       19.158406     19.158530   0.000000   0.000000
  273       19.204774     19.204879   0.000000   0.000000
  274       19.215208     19.215345   0.000000   0.000000
  275       19.251173     19.251268   0.000000   0.000000
  276       19.299859     19.299978   0.000000   0.000000
  277       19.331709     19.331822   0.000000   0.000000
  278       19.353502     19.353666   0.000000   0.000000
  279       19.384655     19.384810   0.000000   0.000000
  280       19.397429     19.397582   0.000000   0.000000
  281       19.433049     19.433187   0.000000   0.000000
  282       19.447590     19.447703   0.000000   0.000000
  283       19.481882     19.482015   0.000000   0.000000
  284       19.512520     19.512650   0.000000   0.000000
  285       19.575838     19.575767   0.000000   0.000000
  286       19.594178     19.594406   0.000000   0.000000
  287       19.610568     19.610596   0.000000   0.000000
  288       19.646349     19.647296   0.000000   0.000000
  289       19.694409     19.695427   0.000000   0.000000
  290       19.745173     19.745378   0.000000   0.000000
  291       19.774429     19.776272   0.000000   0.000000
  292       19.777104     19.778183   0.000000   0.000000
  293       19.832368     19.833944   0.000000   0.000000
  294       19.857328     19.856624   0.000000   0.000000
  295       19.933430     19.931097   0.000000   0.000000
  296       19.960327     19.959197   0.000000   0.000000
  297       20.001201     20.014582   0.000000   0.000000
  298       20.049403     20.049741   0.000000   0.000000
  299       20.107714     20.117992   0.000000   0.000000
  300       20.166799     20.131322   0.000000   0.000000
  301       20.238896     20.250629   0.000000   0.000000
  302       20.287364     20.294028   0.000000   0.000000
  303       20.351202     20.360481   0.000000   0.000000
  304       20.572308     20.448707   0.000000   0.000000
