       N       E                     dE             d eps       ncg     rms          rms(c)
RMM:   1     0.136772373056E+04    0.13677E+04   -0.74485E+04   608   0.513E+02
RMM:   2    -0.395841048497E+00   -0.13681E+04   -0.13099E+04   608   0.119E+02
RMM:   3    -0.285967298158E+03   -0.28557E+03   -0.27859E+03   608   0.490E+01
RMM:   4    -0.364983764347E+03   -0.79016E+02   -0.66814E+02   608   0.280E+01
RMM:   5    -0.391029742341E+03   -0.26046E+02   -0.21028E+02   608   0.128E+01
RMM:   6    -0.400516091332E+03   -0.94863E+01   -0.72788E+01   608   0.753E+00
RMM:   7    -0.403950967132E+03   -0.34349E+01   -0.28280E+01   608   0.380E+00
RMM:   8    -0.405338805489E+03   -0.13878E+01   -0.11327E+01   608   0.234E+00
RMM:   9    -0.406124739427E+03   -0.78593E+00   -0.72126E+00  1507   0.126E+00
RMM:  10    -0.406228094911E+03   -0.10336E+00   -0.55204E-01  1473   0.257E-01
RMM:  11    -0.406230539240E+03   -0.24443E-02   -0.17383E-02  1378   0.497E-02
RMM:  12    -0.406230555245E+03   -0.16005E-04   -0.16090E-04  1165   0.660E-03    0.609E+01
RMM:  13    -0.413259856041E+03   -0.70293E+01   -0.10337E+01  1351   0.344E+00    0.365E+01
RMM:  14    -0.421361717052E+03   -0.81019E+01   -0.47968E+00  1340   0.278E+00    0.172E+01
RMM:  15    -0.422111267379E+03   -0.74955E+00   -0.85064E-01  1405   0.108E+00    0.371E+00
RMM:  16    -0.422281143387E+03   -0.16988E+00   -0.31372E-01  1405   0.651E-01    0.247E+00
RMM:  17    -0.422378042030E+03   -0.96899E-01   -0.98672E-02  1426   0.318E-01    0.134E+00
RMM:  18    -0.422417794356E+03   -0.39752E-01   -0.35728E-02  1407   0.202E-01    0.545E-01
RMM:  19    -0.422422442723E+03   -0.46484E-02   -0.12650E-02  1413   0.129E-01    0.247E-01
RMM:  20    -0.422423652013E+03   -0.12093E-02   -0.24557E-03  1457   0.554E-02    0.109E-01
RMM:  21    -0.422423836300E+03   -0.18429E-03   -0.57447E-04  1451   0.258E-02    0.526E-02
RMM:  22    -0.422423872084E+03   -0.35784E-04   -0.15181E-04  1432   0.138E-02    0.268E-02
RMM:  23    -0.422423882737E+03   -0.10653E-04   -0.35632E-05  1183   0.668E-03    0.127E-02
RMM:  24    -0.422423883455E+03   -0.71737E-06   -0.59366E-06   897   0.291E-03
   1 F= -.42242388E+03 E0= -.42240503E+03  d E =-.377158E-01  mag=     0.0041
