 vasp.5.4.4.18Apr17-6-g9f103f2a35 (build Sep 16 2020 16:20:45) complex          
  
 executed on             LinuxIFC date 2021.08.09  15:42:35
 running on   16 total cores
 distrk:  each k-point on   16 cores,    1 groups
 distr:  one band on NCORES_PER_BAND=   1 cores,   16 groups


--------------------------------------------------------------------------------------------------------


 INCAR:
 POTCAR:    PAW_PBE Si 05Jan2001                  

 ----------------------------------------------------------------------------- 
|                                                                             |
|           W    W    AA    RRRRR   N    N  II  N    N   GGGG   !!!           |
|           W    W   A  A   R    R  NN   N  II  NN   N  G    G  !!!           |
|           W    W  A    A  R    R  N N  N  II  N N  N  G       !!!           |
|           W WW W  AAAAAA  RRRRR   N  N N  II  N  N N  G  GGG   !            |
|           WW  WW  A    A  R   R   N   NN  II  N   NN  G    G                |
|           W    W  A    A  R    R  N    N  II  N    N   GGGG   !!!           |
|                                                                             |
|      For optimal performance we recommend to set                            |
|        NCORE= 4 - approx SQRT( number of cores)                             |
|      NCORE specifies how many cores store one orbital (NPAR=cpu/NCORE).     |
|      This setting can  greatly improve the performance of VASP for DFT.     |
|      The default,   NCORE=1            might be grossly inefficient         |
|      on modern multi-core architectures or massively parallel machines.     |
|      Do your own testing !!!!                                               |
|      Unfortunately you need to use the default for GW and RPA calculations. |
|      (for HF NCORE is supported but not extensively tested yet)             |
|                                                                             |
 ----------------------------------------------------------------------------- 

 POTCAR:    PAW_PBE Si 05Jan2001                  
   SHA256 =  79d9987ad8750f624c4d6acb2a16d13abf6a777132adc04dc6c8399be72b42bb Si
   COPYR  = (c) Copyright 05Jan2001 Georg Kresse                                
   COPYR  = This file is part of the software VASP. Any use, copying, and all ot
   COPYR  = If you do not have a valid VASP license, you may not use, copy or di
   VRHFIN =Si: s2p2                                                             
   LEXCH  = PE                                                                  
   EATOM  =   103.0669 eV,    7.5752 Ry                                         
                                                                                
   TITEL  = PAW_PBE Si 05Jan2001                                                
   LULTRA =        F    use ultrasoft PP ?                                      
   IUNSCR =        1    unscreen: 0-lin 1-nonlin 2-no                           
   RPACOR =    1.500    partial core radius                                     
   POMASS =   28.085; ZVAL   =    4.000    mass and valenz                      
   RCORE  =    1.900    outmost cutoff radius                                   
   RWIGS  =    2.480; RWIGS  =    1.312    wigner-seitz radius (au A)           
   ENMAX  =  245.345; ENMIN  =  184.009 eV                                      
   ICORE  =        2    local potential                                         
   LCOR   =        T    correct aug charges                                     
   LPAW   =        T    paw PP                                                  
   EAUG   =  322.069                                                            
   DEXC   =    0.000                                                            
   RMAX   =    1.950    core radius for proj-oper                               
   RAUG   =    1.300    factor for augmentation sphere                          
   RDEP   =    1.993    radius for radial grids                                 
   RDEPT  =    1.837    core radius for aug-charge                              
                                                                                
   Atomic configuration                                                         
    6 entries                                                                   
     n  l   j            E        occ.                                          
     1  0  0.50     -1785.8828   2.0000                                         
     2  0  0.50      -139.4969   2.0000                                         
     2  1  1.50       -95.5546   6.0000                                         
     3  0  0.50       -10.8127   2.0000                                         
     3  1  0.50        -4.0811   2.0000                                         
     3  2  1.50        -4.0817   0.0000                                         
   Description                                                                  
     l       E           TYP  RCUT    TYP  RCUT                                 
     0    -10.8127223     23  1.900                                             
     0     -7.6451159     23  1.900                                             
     1     -4.0811372     23  1.900                                             
     1      2.4879257     23  1.900                                             
     2     -4.0817478      7  1.900                                             
  local pseudopotential read in
  partial core-charges read in
  partial kinetic energy density read in
  atomic valenz-charges read in
  non local Contribution for L=           0  read in
    real space projection operators read in
  non local Contribution for L=           0  read in
    real space projection operators read in
  non local Contribution for L=           1  read in
    real space projection operators read in
  non local Contribution for L=           1  read in
    real space projection operators read in
    PAW grid and wavefunctions read in
 
   number of l-projection  operators is LMAX  =           4
   number of lm-projection operators is LMMAX =           8
 
 Optimization of the real space projectors (new method)

 maximal supplied QI-value         = 19.84
 optimisation between [QCUT,QGAM] = [  7.94, 15.87] = [ 17.64, 70.56] Ry 
 Optimized for a Real-space Cutoff    1.57 Angstroem

   l    n(q)    QCUT    max X(q) W(low)/X(q) W(high)/X(q)  e(spline) 
   0      7     7.937   159.560    0.16E-03    0.38E-03    0.13E-06
   0      7     7.937   115.863    0.15E-03    0.37E-03    0.13E-06
   1      7     7.937    88.339    0.42E-03    0.67E-03    0.13E-06
   1      7     7.937    48.592    0.41E-03    0.65E-03    0.13E-06
  PAW_PBE Si 05Jan2001                  :
 energy of atom  1       EATOM= -103.0669
 kinetic energy error for atom=    0.0056 (will be added to EATOM!!)
 
 
 POSCAR: Si                                      
  positions in cartesian coordinates
  No initial velocities read in
 exchange correlation table for  LEXCH =        8
   RHO(1)=    0.500       N(1)  =     2000
   RHO(2)=  100.500       N(2)  =     4000
 


--------------------------------------------------------------------------------------------------------


 ion  position               nearest neighbor table
   1  0.118  0.528  0.418-  73 2.23  10 2.26  52 2.27  32 2.30  71 2.30  96 2.37  44 2.44  78 2.46
                            68 2.68  83 2.84  58 2.87 100 2.87
   2  0.582  0.137  0.510-  19 2.31  42 2.37  48 2.39  36 2.42  75 2.44  97 2.44  23 2.45  57 2.54
                            92 2.67  72 2.76  47 2.94  87 3.08
   3  0.170  0.542  0.815-  65 2.28  82 2.31  61 2.34   6 2.38  86 2.40  68 2.42  81 2.50  77 2.51
                            63 2.53  34 2.66  71 2.68  16 2.70  52 2.86
   4  0.693  0.531  0.513-  56 2.16  72 2.21  10 2.23  21 2.29  89 2.35  95 2.38  30 2.39  79 2.42
                            69 2.48  90 3.06  94 3.11
   5  0.609  0.829  0.886-  49 2.23  51 2.26  14 2.27  20 2.40  74 2.48   7 2.49  91 2.53   9 2.57
                            42 2.60  24 2.61  45 2.65  62 2.85  89 2.85
   6  0.015  0.715  0.795-  24 2.23  34 2.30  69 2.32  86 2.34  50 2.35   3 2.38  52 2.40  39 2.44
                            61 2.54  22 2.57  68 2.78  74 2.81  31 3.09
   7  0.545  0.602  0.948-  84 2.24   8 2.25  66 2.27  63 2.33  74 2.38  93 2.44  65 2.46   5 2.49
                            89 2.50   9 2.50  51 2.51
   8  0.692  0.440  0.915-  74 2.23   7 2.25  21 2.32  33 2.32  26 2.33  29 2.43  84 2.44  66 2.49
                            40 2.53  90 2.57  86 2.70  89 2.82
   9  0.688  0.728  0.103-  62 2.14  14 2.28  95 2.30  98 2.40  40 2.47  74 2.50   7 2.50  93 2.55
                            66 2.57   5 2.57  39 2.81
  10  0.900  0.548  0.448-   4 2.23  13 2.25   1 2.26  69 2.27  94 2.33  73 2.34  68 2.44  78 2.51
                            95 2.51  72 2.64  52 2.81  21 3.08
  11  0.940  0.215  0.246-  78 2.17  99 2.29  25 2.32  94 2.36  38 2.38  47 2.43  32 2.49  53 2.52
                            70 2.63  57 2.71  33 2.83  35 3.03
  12  0.329  0.433  0.172-  67 2.28  81 2.28  54 2.33 100 2.37  44 2.39  32 2.41  65 2.46  96 2.49
                            84 2.66  93 2.68  66 2.88  79 2.97  77 3.12
  13  0.876  0.760  0.392-  10 2.25  22 2.28  98 2.29  27 2.30  95 2.31  18 2.45  73 2.49  69 2.80
                            30 2.82  19 2.83  58 3.04  52 3.13
  14  0.530  0.885  0.085-  64 2.18   5 2.27   9 2.28  80 2.39  49 2.40  51 2.40  43 2.51  93 2.51
                            85 2.59  62 2.62  97 2.64  98 2.79
  15  0.845  0.025  0.666-  41 2.23  22 2.25  19 2.27  46 2.39  47 2.42  75 2.46  91 2.50  24 2.51
                            20 2.55  28 2.64  42 2.65
  16  0.068  0.297  0.821-  37 2.16  29 2.22  28 2.30  41 2.36  81 2.41  35 2.47  86 2.56  82 2.56
                            83 2.57  68 2.65  38 2.67   3 2.70  46 3.12
  17  0.186  0.904  0.547-  60 2.22  46 2.27  18 2.33  87 2.41  76 2.43  50 2.45  52 2.48  58 2.54
                            55 2.56  61 2.61  36 2.65  22 2.65  53 3.14
  18  0.015  0.955  0.405-  17 2.33  27 2.36  22 2.36  58 2.41  13 2.45  53 2.45  70 2.46  46 2.47
                            47 2.49  25 2.72  76 2.95
  19  0.709  0.950  0.505-  20 2.22  15 2.27  30 2.29   2 2.31  98 2.31  42 2.36  47 2.55  97 2.68
                            25 2.72  22 2.74  36 2.75  13 2.83
  20  0.711  0.814  0.675-  19 2.22  42 2.28  69 2.30  30 2.32  89 2.35  24 2.37   5 2.40  45 2.47
                            22 2.49  15 2.55  74 2.84
  21  0.776  0.450  0.704-   4 2.29  69 2.30   8 2.32  89 2.36  86 2.41  75 2.41  72 2.44  68 2.45
                            90 2.51  28 2.54  29 2.61  74 2.72  10 3.08
  22  0.938  0.840  0.590-  69 2.17  15 2.25  13 2.28  18 2.36  52 2.36  20 2.49   6 2.57  17 2.65
                            19 2.74  24 2.74  46 2.77  50 2.80
  23  0.412  0.182  0.347-  76 2.27  97 2.27  67 2.28  54 2.30  96 2.33  48 2.35   2 2.45  64 2.53
                            87 2.66  53 2.83  57 2.84  79 2.92  36 2.98
  24  0.860  0.860  0.846-   6 2.23  91 2.28  31 2.37  20 2.37  39 2.42  74 2.44  15 2.51  41 2.60
                             5 2.61  62 2.61  22 2.74  50 2.83  69 3.00
  25  0.800  0.038  0.270-  98 2.15  47 2.29  62 2.29  11 2.32  57 2.38  97 2.44  80 2.45  99 2.60
                            18 2.72  19 2.72  27 2.75
  26  0.612  0.227  0.916-  91 2.30   8 2.33  80 2.33  33 2.36  84 2.39  75 2.49  59 2.51  49 2.52
                            29 2.59  90 2.62  92 2.66  67 2.82
  27  0.975  0.842  0.207-  39 2.19  13 2.30  31 2.35  18 2.36  58 2.36  62 2.41  70 2.41  73 2.47
                            25 2.75  98 3.00
  28  0.933  0.267  0.644-  16 2.30  72 2.32  68 2.35  46 2.36  75 2.37  47 2.39  78 2.41  83 2.42
                            29 2.46  21 2.54  15 2.64  41 2.68
  29  0.858  0.275  0.872-  16 2.22  41 2.25  38 2.28  99 2.39   8 2.43  75 2.43  28 2.46  86 2.54
                            26 2.59  21 2.61  91 2.69  33 2.70
  30  0.614  0.749  0.480-  19 2.29  98 2.30  20 2.32  56 2.36   4 2.39  43 2.42  45 2.46  95 2.47
                            36 2.73  89 2.77  13 2.82  60 2.90
  31  0.014  0.937  0.001-  39 2.20  99 2.34  27 2.35  41 2.36  24 2.37  34 2.42  35 2.47  70 2.47
                            62 2.50  88 2.51  50 2.53   6 3.09
  32  0.105  0.394  0.236-   1 2.30  96 2.32  78 2.33  54 2.36  38 2.39  73 2.41  12 2.41  11 2.49
                            77 2.49 100 2.75  94 2.77  81 2.78  53 2.85
  33  0.726  0.310  0.099-  57 2.28  66 2.30   8 2.32  26 2.36  94 2.36  80 2.41  38 2.50  67 2.59
                            99 2.59  40 2.67  29 2.70  11 2.83
  34  0.165  0.761  0.957-   6 2.30  39 2.31  65 2.33  88 2.33  51 2.38  31 2.42  50 2.47  61 2.53
                            85 2.59 100 2.62  77 2.62   3 2.66
  35  0.113  0.157  0.013-  70 2.29  99 2.34  54 2.41  88 2.44  41 2.45  31 2.47  81 2.47  37 2.47
                            16 2.47  38 2.52  59 2.73  11 3.03
  36  0.440  0.948  0.521-  76 2.28  60 2.35  43 2.37  45 2.37  87 2.37  42 2.40   2 2.42  55 2.52
                            17 2.65  97 2.70  30 2.73  19 2.75  23 2.98  92 3.10
  37  0.229  0.162  0.801-  16 2.16  82 2.25  59 2.27  92 2.28  35 2.47  55 2.48  87 2.51  88 2.59
                            50 2.73  46 2.74  83 2.76  41 2.78  81 2.90
  38  0.963  0.348  0.056-  77 2.23  29 2.28  40 2.37  11 2.38  32 2.39  99 2.41  33 2.50  35 2.52
                            86 2.59  94 2.64  81 2.67  16 2.67
  39  0.951  0.732  0.024-  27 2.19  31 2.20  40 2.30  34 2.31  77 2.36  24 2.42   6 2.44  74 2.52
                            62 2.58  73 2.69   9 2.81  86 2.82
  40  0.843  0.544  0.081-  94 2.29  39 2.30  74 2.36  38 2.37  77 2.39  73 2.45   9 2.47  86 2.49
                             8 2.53  66 2.57  33 2.67  95 2.70
  41  0.969  0.089  0.833-  15 2.23  29 2.25  31 2.36  16 2.36  99 2.36  50 2.41  35 2.45  91 2.49
                            46 2.52  24 2.60  28 2.68  37 2.78
  42  0.588  0.999  0.696-  49 2.23  20 2.28  92 2.33  19 2.36   2 2.37  36 2.40  91 2.48  45 2.58
                             5 2.60  75 2.61  15 2.65  55 2.68
  43  0.465  0.839  0.318-  97 2.16  76 2.36  36 2.37  98 2.37  93 2.41  30 2.42  85 2.43  14 2.51
                            60 2.56  64 2.87  44 2.95  58 3.11
  44  0.343  0.580  0.354-  56 2.25  60 2.33 100 2.34  12 2.39  93 2.43   1 2.44  96 2.52  71 2.53
                            79 2.73  58 2.83  43 2.95
  45  0.472  0.775  0.672-  60 2.23  89 2.23  63 2.28  61 2.34  36 2.37  55 2.38  30 2.46  20 2.47
                            42 2.58  51 2.64   5 2.65  56 2.65
  46  0.064  0.080  0.606-  17 2.27  87 2.34  28 2.36  15 2.39  18 2.47  50 2.49  41 2.52  53 2.53
                            83 2.54  47 2.59  37 2.74  22 2.77  16 3.12
  47  0.865  0.139  0.459-  72 2.21  25 2.29  78 2.31  28 2.39  15 2.42  11 2.43  18 2.49  19 2.55
                            46 2.59  57 2.63  53 2.89   2 2.94  75 2.99
  48  0.427  0.310  0.538-  96 2.27  90 2.33  23 2.35   2 2.39  92 2.43  87 2.46  71 2.52  56 2.65
                            79 2.67  82 2.69  83 2.79
  49  0.492  0.013  0.892-   5 2.23  42 2.23  55 2.30  59 2.37  92 2.37  14 2.40  51 2.48  91 2.51
                            26 2.52  88 2.57  80 2.71  64 2.72
  50  0.122  0.918  0.778-  55 2.22   6 2.35  61 2.36  88 2.40  41 2.41  17 2.45  34 2.47  46 2.49
                            31 2.53  37 2.73  22 2.80  24 2.83
  51  0.393  0.793  0.918-   5 2.26  88 2.35  34 2.38  65 2.40  14 2.40  55 2.47  49 2.48  61 2.50
                             7 2.51  45 2.64  63 2.65  85 2.74  93 2.86
  52  0.103  0.679  0.580-  61 2.22   1 2.27  68 2.33  22 2.36   6 2.40  17 2.48  71 2.53  60 2.54
                            69 2.57  10 2.81   3 2.86  58 2.90  13 3.13
  53  0.138  0.160  0.384-  78 2.25  70 2.30  96 2.33  54 2.33  76 2.38  87 2.44  18 2.45  11 2.52
                            46 2.53  83 2.58  23 2.83  32 2.85  47 2.89  17 3.14
  54  0.251  0.220  0.194-  23 2.30  12 2.33  53 2.33  32 2.36  70 2.37  64 2.41  96 2.41  35 2.41
                            67 2.45  81 2.65  59 2.65  76 2.89
  55  0.335  0.950  0.744-  50 2.22  49 2.30  61 2.35  45 2.38  88 2.41  51 2.47  37 2.48  92 2.49
                            36 2.52  87 2.54  17 2.56  42 2.68
  56  0.483  0.564  0.523-   4 2.16  44 2.25  71 2.30  30 2.36  89 2.38  79 2.43  60 2.43  63 2.61
                            45 2.65  48 2.65  90 2.84
  57  0.682  0.235  0.304-  33 2.28  79 2.34  25 2.38  72 2.38  97 2.46  94 2.50   2 2.54  67 2.57
                            80 2.63  47 2.63  11 2.71  23 2.84
  58  0.165  0.790  0.327-  85 2.23 100 2.27  27 2.36  18 2.41  76 2.48  17 2.54  60 2.55  73 2.63
                            44 2.83  70 2.84   1 2.87  52 2.90  13 3.04  43 3.11
  59  0.373  0.197  0.966-  84 2.25  37 2.27  67 2.36  64 2.37  49 2.37  81 2.44  26 2.51  92 2.54
                            88 2.61  54 2.65  35 2.73  82 2.80
  60  0.331  0.746  0.509-  17 2.22  45 2.23  44 2.33  36 2.35  61 2.36  56 2.43  52 2.54  58 2.55
                            43 2.56  71 2.67  30 2.90  76 2.98
  61  0.254  0.735  0.726-  52 2.22  63 2.26   3 2.34  45 2.34  55 2.35  60 2.36  50 2.36  51 2.50
                            34 2.53   6 2.54  17 2.61  71 2.85  65 3.11
  62  0.786  0.913  0.085-   9 2.14  25 2.29  80 2.32  27 2.41  99 2.43  98 2.44  91 2.49  31 2.50
                            39 2.58  24 2.61  14 2.62   5 2.85
  63  0.409  0.583  0.766-  89 2.14  61 2.26  45 2.28   7 2.33  82 2.47  65 2.47  71 2.51  90 2.52
                             3 2.53  56 2.61  51 2.65  84 2.68
  64  0.401  0.047  0.140-  14 2.18  85 2.31  97 2.33  59 2.37  54 2.41  67 2.45  88 2.45  76 2.51
                            23 2.53  80 2.56  49 2.72  43 2.87  70 2.98
  65  0.308  0.585  0.986- 100 2.22   3 2.28  34 2.33  81 2.34  51 2.40  93 2.45  12 2.46   7 2.46
                            84 2.46  63 2.47  77 2.51  61 3.11
  66  0.601  0.494  0.135-   7 2.27  79 2.29  33 2.30  93 2.31  95 2.47   8 2.49   9 2.57  40 2.57
                            67 2.59  84 2.59  94 2.87  12 2.88
  67  0.482  0.272  0.156-  23 2.28  12 2.28  59 2.36  64 2.45  54 2.45  84 2.50  80 2.56  57 2.57
                            33 2.59  66 2.59  79 2.63  26 2.82  97 3.03
  68  0.008  0.484  0.652-  69 2.25  86 2.26  52 2.33  28 2.35   3 2.42  10 2.44  83 2.45  21 2.45
                            16 2.65   1 2.68   6 2.78  71 2.84  78 2.87
  69  0.861  0.649  0.642-  22 2.17  68 2.25  10 2.27  21 2.30  20 2.30   6 2.32   4 2.48  52 2.57
                            74 2.68  89 2.70  86 2.78  13 2.80  24 3.00
  70  0.115  0.032  0.199-  35 2.29  53 2.30  54 2.37  27 2.41  18 2.46  31 2.47  76 2.48  85 2.60
                            11 2.63  58 2.84  88 2.86  99 2.93  64 2.98
  71  0.275  0.500  0.578-  83 2.27  56 2.30   1 2.30  82 2.34  96 2.45  63 2.51  48 2.52  44 2.53
                            52 2.53  60 2.67   3 2.68  68 2.84  61 2.85
  72  0.771  0.330  0.497-  47 2.21   4 2.21  28 2.32  75 2.36  57 2.38  78 2.40  21 2.44  94 2.60
                            10 2.64   2 2.76  79 2.82
  73  0.002  0.606  0.250-   1 2.23 100 2.30  10 2.34  77 2.36  32 2.41  40 2.45  27 2.47  13 2.49
                            94 2.54  58 2.63  39 2.69  95 2.94
  74  0.766  0.644  0.887-   8 2.23  86 2.27  40 2.36   7 2.38  89 2.42  24 2.44   5 2.48   9 2.50
                            39 2.52  69 2.68  21 2.72   6 2.81  20 2.84
  75  0.710  0.223  0.693-  72 2.36  90 2.37  28 2.37  21 2.41  29 2.43   2 2.44  15 2.46  26 2.49
                            42 2.61  91 2.71  92 2.82  47 2.99
  76  0.297  0.992  0.356-  23 2.27  36 2.28  43 2.36  53 2.38  17 2.43  70 2.48  58 2.48  85 2.48
                            87 2.49  64 2.51  97 2.80  54 2.89  18 2.95  60 2.98
  77  0.073  0.537  0.041- 100 2.21  38 2.23  81 2.27  86 2.29  39 2.36  73 2.36  40 2.39  32 2.49
                             3 2.51  65 2.51  34 2.62  12 3.12
  78  0.994  0.322  0.422-  11 2.17  53 2.25  47 2.31  32 2.33  83 2.38  72 2.40  28 2.41   1 2.46
                            94 2.46  10 2.51  96 2.79  68 2.87
  79  0.562  0.426  0.345-  66 2.29  57 2.34   4 2.42  56 2.43  67 2.63  95 2.63  48 2.67  44 2.73
                            72 2.82  94 2.92  23 2.92  12 2.97
  80  0.644  0.089  0.096-  62 2.32  97 2.33  26 2.33  14 2.39  91 2.41  33 2.41  25 2.45  64 2.56
                            67 2.56  99 2.58  57 2.63  49 2.71
  81  0.215  0.375  0.989-  77 2.27  12 2.28  65 2.34  16 2.41  59 2.44  35 2.47  82 2.48   3 2.50
                            84 2.53  54 2.65  38 2.67  32 2.78  37 2.90
  82  0.302  0.366  0.762-  37 2.25   3 2.31  71 2.34  83 2.38  63 2.47  81 2.48  90 2.48  92 2.49
                            84 2.51  16 2.56  48 2.69  59 2.80
  83  0.159  0.310  0.586-  71 2.27  96 2.30  78 2.38  87 2.38  82 2.38  28 2.42  68 2.45  46 2.54
                            16 2.57  53 2.58  37 2.76  48 2.79   1 2.84
  84  0.458  0.400  0.948-   7 2.24  59 2.25  26 2.39   8 2.44  65 2.46  90 2.47  67 2.50  82 2.51
                            81 2.53  66 2.59  12 2.66  63 2.68
  85  0.289  0.850  0.158-  58 2.23  64 2.31  88 2.35 100 2.35  43 2.43  76 2.48  93 2.54  34 2.59
                            14 2.59  70 2.60  51 2.74
  86  0.942  0.509  0.862-  68 2.26  74 2.27  77 2.29   6 2.34   3 2.40  21 2.41  40 2.49  29 2.54
                            16 2.56  38 2.59   8 2.70  69 2.78  39 2.82
  87  0.287  0.117  0.566-  46 2.34  92 2.35  36 2.37  83 2.38  17 2.41  53 2.44  48 2.46  76 2.49
                            37 2.51  55 2.54  23 2.66  96 2.98   2 3.08
  88  0.255  0.971  0.965-  34 2.33  51 2.35  85 2.35  50 2.40  55 2.41  35 2.44  64 2.45  31 2.51
                            49 2.57  37 2.59  59 2.61  70 2.86
  89  0.610  0.610  0.713-  63 2.14  45 2.23   4 2.35  20 2.35  21 2.36  56 2.38  74 2.42  90 2.46
                             7 2.50  69 2.70  30 2.77   8 2.82   5 2.85
  90  0.541  0.379  0.722-  48 2.33  75 2.37  92 2.38  89 2.46  84 2.47  82 2.48  21 2.51  63 2.52
                             8 2.57  26 2.62  56 2.84   4 3.06
  91  0.736  0.042  0.884-  24 2.28  26 2.30  80 2.41  99 2.44  42 2.48  41 2.49  62 2.49  15 2.50
                            49 2.51   5 2.53  29 2.69  75 2.71
  92  0.441  0.169  0.729-  37 2.28  42 2.33  87 2.35  49 2.37  90 2.38  48 2.43  82 2.49  55 2.49
                            59 2.54  26 2.66   2 2.67  75 2.82  36 3.10
  93  0.453  0.664  0.160-  66 2.31  43 2.41  44 2.43   7 2.44  65 2.45 100 2.49  14 2.51  85 2.54
                             9 2.55  12 2.68  51 2.86  95 3.10
  94  0.837  0.421  0.269-  40 2.29  10 2.33  11 2.36  33 2.36  95 2.43  78 2.46  57 2.50  73 2.54
                            72 2.60  38 2.64  32 2.77  66 2.87  79 2.92   4 3.11
  95  0.719  0.625  0.301-   9 2.30  13 2.31  98 2.37   4 2.38  94 2.43  30 2.47  66 2.47  10 2.51
                            79 2.63  40 2.70  73 2.94  93 3.10
  96  0.264  0.349  0.392-  48 2.27  83 2.30  32 2.32  23 2.33  53 2.33   1 2.37  54 2.41  71 2.45
                            12 2.49  44 2.52  78 2.79  87 2.98
  97  0.563  0.025  0.300-  43 2.16  98 2.20  23 2.27  80 2.33  64 2.33  25 2.44   2 2.44  57 2.46
                            14 2.64  19 2.68  36 2.70  76 2.80  67 3.03
  98  0.696  0.856  0.300-  25 2.15  97 2.20  13 2.29  30 2.30  19 2.31  43 2.37  95 2.37   9 2.40
                            62 2.44  14 2.79  27 3.00
  99  0.889  0.124  0.048-  11 2.29  35 2.34  31 2.34  41 2.36  29 2.39  38 2.41  62 2.43  91 2.44
                            80 2.58  33 2.59  25 2.60  70 2.93
 100  0.212  0.634  0.175-  77 2.21  65 2.22  58 2.27  73 2.30  44 2.34  85 2.35  12 2.37  93 2.49
                            34 2.62  32 2.75   1 2.87
 

IMPORTANT INFORMATION: All symmetrisations will be switched off!
NOSYMM: (Re-)initialisation of all symmetry stuff for point group C_1.

 
 
 KPOINTS: simple                                  

Automatic generation of k-mesh.
Space group operators:
 irot       det(A)        alpha          n_x          n_y          n_z        tau_x        tau_y        tau_z
    1     1.000000     0.000000     1.000000     0.000000     0.000000     0.000000     0.000000     0.000000
 
 Subroutine IBZKPT returns following result:
 ===========================================
 
 Found      1 irreducible k-points:
 
 Following reciprocal coordinates:
            Coordinates               Weight
  0.000000  0.000000  0.000000      1.000000
 
 Following cartesian coordinates:
            Coordinates               Weight
  0.000000  0.000000  0.000000      1.000000
 


--------------------------------------------------------------------------------------------------------




 Dimension of arrays:
   k-points           NKPTS =      1   k-points in BZ     NKDIM =      1   number of bands    NBANDS=    304
   number of dos      NEDOS =    301   number of ions     NIONS =    100
   non local maximal  LDIM  =      4   non local SUM 2l+1 LMDIM =      8
   total plane-waves  NPLWV =  64000
   max r-space proj   IRMAX =   1017   max aug-charges    IRDMAX=   2209
   dimension x,y,z NGX =    40 NGY =   40 NGZ =   40
   dimension x,y,z NGXF=    80 NGYF=   80 NGZF=   80
   support grid    NGXF=    80 NGYF=   80 NGZF=   80
   ions per type =             100
   NGX,Y,Z   is equivalent  to a cutoff of   6.51,  6.51,  6.51 a.u.
   NGXF,Y,Z  is equivalent  to a cutoff of  13.02, 13.02, 13.02 a.u.

 SYSTEM =  unknown system                          
 POSCAR =  Si                                      

 Startparameter for this run:
   NWRITE =      2    write-flag & timer
   PREC   = normal    normal or accurate (medium, high low for compatibility)
   ISTART =      0    job   : 0-new  1-cont  2-samecut
   ICHARG =      2    charge: 1-file 2-atom 10-const
   ISPIN  =      2    spin polarized calculation?
   LNONCOLLINEAR =      F non collinear calculations
   LSORBIT =      F    spin-orbit coupling
   INIWAV =      1    electr: 0-lowe 1-rand  2-diag
   LASPH  =      F    aspherical Exc in radial PAW
   METAGGA=      F    non-selfconsistent MetaGGA calc.

 Electronic Relaxation 1
   ENCUT  =  245.3 eV  18.03 Ry    4.25 a.u.  13.04 13.04 13.04*2*pi/ulx,y,z
   ENINI  =  245.3     initial cutoff
   ENAUG  =  322.1 eV  augmentation charge cutoff
   NELM   =     60;   NELMIN=  4; NELMDL=-12     # of ELM steps 
   EDIFF  = 0.1E-04   stopping-criterion for ELM
   LREAL  =      T    real-space projection
   NLSPLINE    = F    spline interpolate recip. space projectors
   LCOMPAT=      F    compatible to vasp.4.4
   GGA_COMPAT  = T    GGA compatible to vasp.4.4-vasp.4.6
   LMAXPAW     = -100 max onsite density
   LMAXMIX     =    2 max onsite mixed and CHGCAR
   VOSKOWN=      0    Vosko Wilk Nusair interpolation
   ROPT   =   -0.00050
 Ionic relaxation
   EDIFFG = 0.1E-03   stopping-criterion for IOM
   NSW    =      0    number of steps for IOM
   NBLOCK =      1;   KBLOCK =      1    inner block; outer block 
   IBRION =     -1    ionic relax: 0-MD 1-quasi-New 2-CG
   NFREE  =      0    steps in history (QN), initial steepest desc. (CG)
   ISIF   =      2    stress and relaxation
   IWAVPR =     10    prediction:  0-non 1-charg 2-wave 3-comb
   ISYM   =      0    0-nonsym 1-usesym 2-fastsym
   LCORR  =      T    Harris-Foulkes like correction to forces

   POTIM  = 0.5000    time-step for ionic-motion
   TEIN   =    0.0    initial temperature
   TEBEG  =    0.0;   TEEND  =   0.0 temperature during run
   SMASS  =  -3.00    Nose mass-parameter (am)
   estimated Nose-frequenzy (Omega)   =  0.10E-29 period in steps =****** mass=  -0.238E-26a.u.
   SCALEE = 1.0000    scale energy and forces
   NPACO  =    256;   APACO  = 16.0  distance and # of slots for P.C.
   PSTRESS=    0.0 pullay stress

  Mass of Ions in am
   POMASS =  28.09
  Ionic Valenz
   ZVAL   =   4.00
  Atomic Wigner-Seitz radii
   RWIGS  =  -1.00
  virtual crystal weights 
   VCA    =   1.00
   NELECT =     400.0000    total number of electrons
   NUPDOWN=      -1.0000    fix difference up-down

 DOS related values:
   EMIN   =  10.00;   EMAX   =-10.00  energy-range for DOS
   EFERMI =   0.00
   ISMEAR =     0;   SIGMA  =   0.05  broadening in eV -4-tet -1-fermi 0-gaus

 Electronic relaxation 2 (details)
   IALGO  =     48    algorithm
   LDIAG  =      T    sub-space diagonalisation (order eigenvalues)
   LSUBROT=      F    optimize rotation matrix (better conditioning)
   TURBO    =      0    0=normal 1=particle mesh
   IRESTART =      0    0=no restart 2=restart with 2 vectors
   NREBOOT  =      0    no. of reboots
   NMIN     =      0    reboot dimension
   EREF     =   0.00    reference energy to select bands
   IMIX   =      4    mixing-type and parameters
     AMIX     =   0.40;   BMIX     =  1.00
     AMIX_MAG =   1.60;   BMIX_MAG =  1.00
     AMIN     =   0.10
     WC   =   100.;   INIMIX=   1;  MIXPRE=   1;  MAXMIX= -45

 Intra band minimization:
   WEIMIN = 0.0000     energy-eigenvalue tresh-hold
   EBREAK =  0.82E-08  absolut break condition
   DEPER  =   0.30     relativ break condition  

   TIME   =   0.40     timestep for ELM

  volume/ion in A,a.u.               =      10.65        71.86
  Fermi-wavevector in a.u.,A,eV,Ry     =   1.181242  2.232223 18.984649  1.395332
  Thomas-Fermi vector in A             =   2.317519
 
 Write flags
   LWAVE        =      F    write WAVECAR
   LDOWNSAMPLE  =      F    k-point downsampling of WAVECAR
   LCHARG       =      F    write CHGCAR
   LVTOT        =      F    write LOCPOT, total local potential
   LVHAR        =      F    write LOCPOT, Hartree potential only
   LELF         =      F    write electronic localiz. function (ELF)
   LORBIT       =      0    0 simple, 1 ext, 2 COOP (PROOUT), +10 PAW based schemes


 Dipole corrections
   LMONO  =      F    monopole corrections only (constant potential shift)
   LDIPOL =      F    correct potential (dipole corrections)
   IDIPOL =      0    1-x, 2-y, 3-z, 4-all directions 
   EPSILON=  1.0000000 bulk dielectric constant

 Exchange correlation treatment:
   GGA     =    --    GGA type
   LEXCH   =     8    internal setting for exchange type
   VOSKOWN=      0    Vosko Wilk Nusair interpolation
   LHFCALC =     F    Hartree Fock is set to
   LHFONE  =     F    Hartree Fock one center treatment
   AEXX    =    0.0000 exact exchange contribution

 Linear response parameters
   LEPSILON=     F    determine dielectric tensor
   LRPA    =     F    only Hartree local field effects (RPA)
   LNABLA  =     F    use nabla operator in PAW spheres
   LVEL    =     F    velocity operator in full k-point grid
   LINTERFAST=   F  fast interpolation
   KINTER  =     0    interpolate to denser k-point grid
   CSHIFT  =0.1000    complex shift for real part using Kramers Kronig
   OMEGAMAX=  -1.0    maximum frequency
   DEG_THRESHOLD= 0.2000000E-02 threshold for treating states as degnerate
   RTIME   =   -0.100 relaxation time in fs
  (WPLASMAI=    0.000 imaginary part of plasma frequency in eV, 0.658/RTIME)
   DFIELD  = 0.0000000 0.0000000 0.0000000 field for delta impulse in time
 
 Orbital magnetization related:
   ORBITALMAG=     F  switch on orbital magnetization
   LCHIMAG   =     F  perturbation theory with respect to B field
   DQ        =  0.001000  dq finite difference perturbation B field
   LLRAUG    =     F  two centre corrections for induced B field



--------------------------------------------------------------------------------------------------------


 Static calculation
 charge density and potential will be updated during run
 spin polarized calculation
 RMM-DIIS sequential band-by-band
 perform sub-space diagonalisation
    before iterative eigenvector-optimisation
 modified Broyden-mixing scheme, WC =      100.0
 initial mixing is a Kerker type mixing with AMIX =  0.4000 and BMIX =      1.0000
 Hartree-type preconditioning will be used
 using additional bands          104
 real space projection scheme for non local part
 use partial core corrections
 calculate Harris-corrections to forces 
   (improved forces if not selfconsistent)
 use gradient corrections 
 use of overlap-Matrix (Vanderbilt PP)
 Gauss-broadening in eV      SIGMA  =   0.05


--------------------------------------------------------------------------------------------------------


  energy-cutoff  :      245.34
  volume of cell :     1064.80
      direct lattice vectors                 reciprocal lattice vectors
    10.211495000  0.000000000  0.000000000     0.097928854  0.000000000  0.000000000
     0.000000000 10.211495000  0.000000000     0.000000000  0.097928854  0.000000000
     0.000000000  0.000000000 10.211495000     0.000000000  0.000000000  0.097928854

  length of vectors
    10.211495000 10.211495000 10.211495000     0.097928854  0.097928854  0.097928854


 
 k-points in units of 2pi/SCALE and weight: simple                                  
   0.00000000  0.00000000  0.00000000       1.000
 
 k-points in reciprocal lattice and weights: simple                                  
   0.00000000  0.00000000  0.00000000       1.000
 
 position of ions in fractional coordinates (direct lattice) 
   0.11838500  0.52806200  0.41773200
   0.58212100  0.13743000  0.51030900
   0.16968700  0.54173300  0.81511600
   0.69268600  0.53130800  0.51266600
   0.60941000  0.82912300  0.88560700
   0.01548350  0.71532000  0.79490800
   0.54520800  0.60185100  0.94824100
   0.69187500  0.44043300  0.91480100
   0.68757100  0.72842300  0.10256100
   0.90028200  0.54783400  0.44769000
   0.94018060  0.21534300  0.24632100
   0.32866600  0.43332100  0.17181800
   0.87576900  0.75980200  0.39207500
   0.53008500  0.88536300  0.08520360
   0.84455700  0.02502820  0.66550100
   0.06816650  0.29733800  0.82083500
   0.18611500  0.90418000  0.54670000
   0.01467320  0.95468600  0.40465800
   0.70912500  0.95048600  0.50511200
   0.71094200  0.81383000  0.67468600
   0.77594600  0.44974200  0.70395400
   0.93800600  0.84032400  0.59041300
   0.41209700  0.18181400  0.34749100
   0.85982000  0.85983400  0.84630600
   0.80025800  0.03757640  0.27025300
   0.61229000  0.22684300  0.91580800
   0.97474100  0.84238200  0.20681100
   0.93251100  0.26674700  0.64350700
   0.85775200  0.27504600  0.87237000
   0.61402000  0.74906200  0.47965400
   0.01435250  0.93711200  0.00065627
   0.10487400  0.39448300  0.23637700
   0.72565300  0.31036800  0.09858280
   0.16545300  0.76053200  0.95652800
   0.11349500  0.15693400  0.01295700
   0.44045500  0.94812300  0.52057200
   0.22947000  0.16172200  0.80075300
   0.96347300  0.34770100  0.05553550
   0.95148100  0.73228300  0.02411330
   0.84255900  0.54376600  0.08147050
   0.96922000  0.08912460  0.83303300
   0.58838000  0.99872000  0.69647800
   0.46543400  0.83879800  0.31791800
   0.34312300  0.57957400  0.35391400
   0.47222300  0.77548400  0.67239200
   0.06386860  0.08049530  0.60580300
   0.86535100  0.13939700  0.45860300
   0.42720200  0.31039100  0.53756900
   0.49241600  0.01287140  0.89184900
   0.12240500  0.91830500  0.77796900
   0.39335100  0.79264500  0.91808400
   0.10296400  0.67860200  0.58035200
   0.13790500  0.16002400  0.38364400
   0.25113700  0.22040700  0.19441700
   0.33457600  0.95003000  0.74395400
   0.48346400  0.56369400  0.52260800
   0.68212700  0.23503600  0.30421500
   0.16503500  0.78985500  0.32700400
   0.37337100  0.19727500  0.96620700
   0.33106600  0.74624300  0.50863500
   0.25361000  0.73495300  0.72609900
   0.78553500  0.91259500  0.08499070
   0.40882000  0.58261500  0.76633800
   0.40111300  0.04676510  0.14005300
   0.30767500  0.58483400  0.98575900
   0.60123000  0.49442000  0.13500200
   0.48199500  0.27176900  0.15566300
   0.00777000  0.48413300  0.65180900
   0.86105100  0.64877500  0.64190400
   0.11529700  0.03206440  0.19947400
   0.27492500  0.49992600  0.57786300
   0.77088800  0.32997800  0.49711100
   0.00178000  0.60612700  0.25030100
   0.76635100  0.64353200  0.88685700
   0.70995400  0.22296700  0.69275000
   0.29660300  0.99216300  0.35577700
   0.07275950  0.53676000  0.04126370
   0.99395550  0.32206500  0.42241900
   0.56161700  0.42609300  0.34536500
   0.64369700  0.08917020  0.09563600
   0.21497800  0.37480100  0.98864900
   0.30162800  0.36621400  0.76192900
   0.15867700  0.31012700  0.58624700
   0.45825400  0.40009100  0.94809700
   0.28938500  0.85046900  0.15833800
   0.94155900  0.50943900  0.86177500
   0.28688800  0.11652600  0.56581700
   0.25545700  0.97054600  0.96502500
   0.60969200  0.61021700  0.71264200
   0.54123800  0.37934200  0.72224500
   0.73607600  0.04167430  0.88420700
   0.44106000  0.16937900  0.72860300
   0.45326500  0.66385500  0.15999300
   0.83709700  0.42096800  0.26877600
   0.71910300  0.62523800  0.30061700
   0.26427400  0.34931300  0.39172400
   0.56321900  0.02536000  0.29963000
   0.69623400  0.85638400  0.29960800
   0.88922000  0.12379200  0.04754630
   0.21175600  0.63430300  0.17479500
 
 position of ions in cartesian coordinates  (Angst):
   1.20888784  5.39230247  4.26566823
   5.94432568  1.40336576  5.21101780
   1.73275795  5.53190382  8.32355296
   7.07335963  5.42544899  5.23508630
   6.22298717  8.46658537  9.04337145
   0.15810968  7.30448660  8.11719907
   5.56738877  6.14579848  9.68295823
   7.06507810  4.49747938  9.34148584
   7.02112783  7.43828782  1.04730114
   9.19322514  5.59420415  4.57158420
   9.60064950  2.19897397  2.51530566
   3.35617122  4.42485522  1.75451865
   8.94291076  7.75871432  4.00367190
   5.41296033  9.04087985  0.87005614
   8.62418958  0.25557534  6.79576013
   0.69608187  3.03626550  8.38195250
   1.90051239  9.23302955  5.58262432
   0.14983531  9.74877132  4.13216314
   7.24122639  9.70588304  5.15794866
   7.25978068  8.31042098  6.88955272
   7.92356870  4.59253818  7.18842275
   9.57844358  8.58096432  6.02899940
   4.20812646  1.85659275  3.54840261
   8.78004763  8.78019059  8.64204949
   8.17183057  0.38371122  2.75968716
   6.25239627  2.31640616  9.35176881
   9.95356285  8.60197958  2.11184949
   9.52233141  2.72388566  6.57116851
   8.75893026  2.80863085  8.90820189
   6.27006216  7.64904287  4.89798442
   0.14656048  9.56931450  0.00670146
   1.07092033  4.02826118  2.41376255
   7.41000198  3.16932128  1.00667777
   1.68952248  7.76616872  9.76758089
   1.15895363  1.60253076  0.13231034
   4.49770403  9.68175327  5.31581838
   2.34323176  1.65142339  8.17688526
   9.83849972  3.55054702  0.56710048
   9.71604347  7.47770419  0.24623284
   8.60378702  5.55266379  0.83193560
   9.89718518  0.91009541  8.50651231
   6.00823943 10.19842429  7.11208161
   4.75277696  8.56538158  3.24641807
   3.50379880  5.91831700  3.61399104
   4.82210280  7.91885099  6.86612755
   0.65219389  0.82197735  6.18615431
   8.83652741  1.42345177  4.68302224
   4.36237109  3.16955614  5.48938316
   5.02830352  0.13143624  9.10711160
   1.24993805  9.37726692  7.94422655
   4.01670177  8.09409045  9.37501018
   1.05141637  6.92954093  5.92626155
   1.40821622  1.63408428  3.91757879
   2.56448422  2.25068498  1.98528822
   3.41652115  9.70122659  7.59688255
   4.93689022  5.75615846  5.33660898
   6.96553645  2.40006894  3.10648995
   1.68525408  8.06560038  3.33919971
   3.81267610  2.01447268  9.86641795
   3.38067880  7.62025666  5.19392376
   2.58973725  7.50496888  7.41455631
   8.02148672  9.31895928  0.86788211
   4.17466339  5.94937016  7.82545666
   4.09596339  0.47754158  1.43015051
   3.14182172  5.97202947 10.06607310
   6.13945714  5.04876736  1.37857225
   4.92188953  2.77516778  1.58955195
   0.07934332  4.94372171  6.65594434
   8.79261798  6.62496267  6.55479949
   1.17735474  0.32742546  2.03692775
   2.80739526  5.10499185  5.90084514
   7.87191896  3.36956870  5.07624649
   0.01817646  6.18946283  2.55594741
   7.82558940  6.57142380  9.05613582
   7.24969172  2.27682641  7.07401316
   3.02876005 10.13146751  3.63301506
   0.74298327  5.48112206  0.42136407
  10.14977162  3.28876514  4.31352951
   5.73494919  4.35104654  3.52669297
   6.57310870  0.91056105  0.97658654
   2.19524677  3.82727854 10.09558432
   3.08007281  3.73959243  7.78043417
   1.62032939  3.16686031  5.98645831
   4.67945843  4.08552725  9.68148778
   2.95505348  8.68455994  1.61686770
   9.61472502  5.20213380  8.80001110
   2.92955538  1.18990467  5.77783747
   2.60859788  9.91072563  9.85434796
   6.22586681  6.23122784  7.27714022
   5.52684913  3.87364894  7.37520121
   7.51643639  0.42555691  9.02907536
   4.50388198  1.72961281  7.44012589
   4.62851328  6.77895201  1.63376772
   8.54801183  4.29871263  2.74460478
   7.34311669  6.38461471  3.06974899
   2.69863263  3.56700795  4.00008767
   5.75130800  0.25896351  3.05967025
   7.10959001  8.74496093  3.05944559
   9.08026558  1.26410139  0.48551880
   2.16234534  6.47718191  1.78491827
 


--------------------------------------------------------------------------------------------------------


 k-point  1 :   0.0000 0.0000 0.0000  plane waves:    9315

 maximum and minimum number of plane-waves per node :      9315     9315

 maximum number of plane-waves:      9315
 maximum index in each direction: 
   IXMAX=   13   IYMAX=   13   IZMAX=   13
   IXMIN=  -13   IYMIN=  -13   IZMIN=  -13


 serial   3D FFT for wavefunctions
 parallel 3D FFT for charge:
    minimum data exchange during FFTs selected (reduces bandwidth)


 total amount of memory used by VASP MPI-rank0    53950. kBytes
=======================================================================

   base      :      30000. kBytes
   nonlr-proj:       8282. kBytes
   fftplans  :       1377. kBytes
   grid      :       7520. kBytes
   one-center:        614. kBytes
   wavefun   :       6157. kBytes
 
     INWAV:  cpu time    0.0000: real time    0.0002
 Broyden mixing: mesh for mixing (old mesh)
   NGX = 27   NGY = 27   NGZ = 27
  (NGX  = 80   NGY  = 80   NGZ  = 80)
  gives a total of  19683 points

 initial charge density was supplied:
 charge density of overlapping atoms calculated
 number of electron     400.0000000 magnetization     100.0000000
 keeping initial charge density in first step


--------------------------------------------------------------------------------------------------------


 Maximum index for non-local projection operator          951
 Maximum index for augmentation-charges          190 (set IRDMAX)


--------------------------------------------------------------------------------------------------------


 First call to EWALD:  gamma=   0.174
 Maximum number of real-space cells 3x 3x 3
 Maximum number of reciprocal cells 3x 3x 3

    FEWALD:  cpu time    0.0073: real time    0.0073


--------------------------------------- Iteration      1(   1)  ---------------------------------------


    POTLOK:  cpu time    0.0555: real time    0.1373
    SETDIJ:  cpu time    0.0345: real time    0.0346
    EDDIAG:  cpu time    0.3455: real time    0.3474
  RMM-DIIS:  cpu time    0.4308: real time    0.4359
    ORTHCH:  cpu time    0.0976: real time    0.0983
       DOS:  cpu time    0.0004: real time    0.0004
    --------------------------------------------
      LOOP:  cpu time    0.9644: real time    1.0540

 eigenvalue-minimisations  :   608
 total energy-change (2. order) : 0.1367724E+04  (-0.7448527E+04)
 number of electron     400.0000000 magnetization     100.0000000
 augmentation part      400.0000000 magnetization     100.0000000

 Free energy of the ion-electron system (eV)
  ---------------------------------------------------
  alpha Z        PSCENC =       316.14514549
  Ewald energy   TEWEN  =    -14958.24709597
  -Hartree energ DENC   =       -91.04707160
  -exchange      EXHF   =         0.00000000
  -V(xc)+E(xc)   XCENC  =      -777.86642143
  PAW double counting   =      8803.41707833    -7043.47671478
  entropy T*S    EENTRO =        -0.00217605
  eigenvalues    EBANDS =      4812.67237098
  atomic energy  EATOM  =     10306.12861560
  Solvation  Ediel_sol  =         0.00000000
  ---------------------------------------------------
  free energy    TOTEN  =      1367.72373056 eV

  energy without entropy =     1367.72590661  energy(sigma->0) =     1367.72481859


--------------------------------------------------------------------------------------------------------




--------------------------------------- Iteration      1(   2)  ---------------------------------------


    EDDIAG:  cpu time    0.3393: real time    0.3414
  RMM-DIIS:  cpu time    0.4348: real time    0.4399
    ORTHCH:  cpu time    0.0974: real time    0.0980
       DOS:  cpu time    0.0003: real time    0.0003
    --------------------------------------------
      LOOP:  cpu time    0.8718: real time    0.8796

 eigenvalue-minimisations  :   608
 total energy-change (2. order) :-0.1368120E+04  (-0.1309948E+04)
 number of electron     400.0000000 magnetization     100.0000000
 augmentation part      400.0000000 magnetization     100.0000000

 Free energy of the ion-electron system (eV)
  ---------------------------------------------------
  alpha Z        PSCENC =       316.14514549
  Ewald energy   TEWEN  =    -14958.24709597
  -Hartree energ DENC   =       -91.04707160
  -exchange      EXHF   =         0.00000000
  -V(xc)+E(xc)   XCENC  =      -777.86642143
  PAW double counting   =      8803.41707833    -7043.47671478
  entropy T*S    EENTRO =        -0.02820378
  eigenvalues    EBANDS =      3444.57882710
  atomic energy  EATOM  =     10306.12861560
  Solvation  Ediel_sol  =         0.00000000
  ---------------------------------------------------
  free energy    TOTEN  =        -0.39584105 eV

  energy without entropy =       -0.36763727  energy(sigma->0) =       -0.38173916


--------------------------------------------------------------------------------------------------------




--------------------------------------- Iteration      1(   3)  ---------------------------------------


    EDDIAG:  cpu time    0.3380: real time    0.3400
  RMM-DIIS:  cpu time    0.4416: real time    0.4466
    ORTHCH:  cpu time    0.0974: real time    0.0980
       DOS:  cpu time    0.0003: real time    0.0003
    --------------------------------------------
      LOOP:  cpu time    0.8774: real time    0.8849

 eigenvalue-minimisations  :   608
 total energy-change (2. order) :-0.2855715E+03  (-0.2785881E+03)
 number of electron     400.0000000 magnetization     100.0000000
 augmentation part      400.0000000 magnetization     100.0000000

 Free energy of the ion-electron system (eV)
  ---------------------------------------------------
  alpha Z        PSCENC =       316.14514549
  Ewald energy   TEWEN  =    -14958.24709597
  -Hartree energ DENC   =       -91.04707160
  -exchange      EXHF   =         0.00000000
  -V(xc)+E(xc)   XCENC  =      -777.86642143
  PAW double counting   =      8803.41707833    -7043.47671478
  entropy T*S    EENTRO =        -0.03784479
  eigenvalues    EBANDS =      3159.01701100
  atomic energy  EATOM  =     10306.12861560
  Solvation  Ediel_sol  =         0.00000000
  ---------------------------------------------------
  free energy    TOTEN  =      -285.96729816 eV

  energy without entropy =     -285.92945336  energy(sigma->0) =     -285.94837576


--------------------------------------------------------------------------------------------------------




--------------------------------------- Iteration      1(   4)  ---------------------------------------


    EDDIAG:  cpu time    0.3381: real time    0.3401
  RMM-DIIS:  cpu time    0.4302: real time    0.4352
    ORTHCH:  cpu time    0.0971: real time    0.0977
       DOS:  cpu time    0.0003: real time    0.0003
    --------------------------------------------
      LOOP:  cpu time    0.8657: real time    0.8733

 eigenvalue-minimisations  :   608
 total energy-change (2. order) :-0.7901647E+02  (-0.6681399E+02)
 number of electron     400.0000000 magnetization     100.0000000
 augmentation part      400.0000000 magnetization     100.0000000

 Free energy of the ion-electron system (eV)
  ---------------------------------------------------
  alpha Z        PSCENC =       316.14514549
  Ewald energy   TEWEN  =    -14958.24709597
  -Hartree energ DENC   =       -91.04707160
  -exchange      EXHF   =         0.00000000
  -V(xc)+E(xc)   XCENC  =      -777.86642143
  PAW double counting   =      8803.41707833    -7043.47671478
  entropy T*S    EENTRO =        -0.05890165
  eigenvalues    EBANDS =      3080.02160167
  atomic energy  EATOM  =     10306.12861560
  Solvation  Ediel_sol  =         0.00000000
  ---------------------------------------------------
  free energy    TOTEN  =      -364.98376435 eV

  energy without entropy =     -364.92486270  energy(sigma->0) =     -364.95431352


--------------------------------------------------------------------------------------------------------




--------------------------------------- Iteration      1(   5)  ---------------------------------------


    EDDIAG:  cpu time    0.3367: real time    0.3386
  RMM-DIIS:  cpu time    0.4357: real time    0.4408
    ORTHCH:  cpu time    0.0973: real time    0.0979
       DOS:  cpu time    0.0003: real time    0.0003
    --------------------------------------------
      LOOP:  cpu time    0.8700: real time    0.8777

 eigenvalue-minimisations  :   608
 total energy-change (2. order) :-0.2604598E+02  (-0.2102848E+02)
 number of electron     400.0000000 magnetization     100.0000000
 augmentation part      400.0000000 magnetization     100.0000000

 Free energy of the ion-electron system (eV)
  ---------------------------------------------------
  alpha Z        PSCENC =       316.14514549
  Ewald energy   TEWEN  =    -14958.24709597
  -Hartree energ DENC   =       -91.04707160
  -exchange      EXHF   =         0.00000000
  -V(xc)+E(xc)   XCENC  =      -777.86642143
  PAW double counting   =      8803.41707833    -7043.47671478
  entropy T*S    EENTRO =        -0.04142295
  eigenvalues    EBANDS =      3053.95814497
  atomic energy  EATOM  =     10306.12861560
  Solvation  Ediel_sol  =         0.00000000
  ---------------------------------------------------
  free energy    TOTEN  =      -391.02974234 eV

  energy without entropy =     -390.98831940  energy(sigma->0) =     -391.00903087


--------------------------------------------------------------------------------------------------------




--------------------------------------- Iteration      1(   6)  ---------------------------------------


    EDDIAG:  cpu time    0.3368: real time    0.3388
  RMM-DIIS:  cpu time    0.4392: real time    0.4446
    ORTHCH:  cpu time    0.0972: real time    0.0978
       DOS:  cpu time    0.0003: real time    0.0003
    --------------------------------------------
      LOOP:  cpu time    0.8735: real time    0.8816

 eigenvalue-minimisations  :   608
 total energy-change (2. order) :-0.9486349E+01  (-0.7278784E+01)
 number of electron     400.0000000 magnetization     100.0000000
 augmentation part      400.0000000 magnetization     100.0000000

 Free energy of the ion-electron system (eV)
  ---------------------------------------------------
  alpha Z        PSCENC =       316.14514549
  Ewald energy   TEWEN  =    -14958.24709597
  -Hartree energ DENC   =       -91.04707160
  -exchange      EXHF   =         0.00000000
  -V(xc)+E(xc)   XCENC  =      -777.86642143
  PAW double counting   =      8803.41707833    -7043.47671478
  entropy T*S    EENTRO =        -0.04320080
  eigenvalues    EBANDS =      3044.47357384
  atomic energy  EATOM  =     10306.12861560
  Solvation  Ediel_sol  =         0.00000000
  ---------------------------------------------------
  free energy    TOTEN  =      -400.51609133 eV

  energy without entropy =     -400.47289053  energy(sigma->0) =     -400.49449093


--------------------------------------------------------------------------------------------------------




--------------------------------------- Iteration      1(   7)  ---------------------------------------


    EDDIAG:  cpu time    0.3364: real time    0.3384
  RMM-DIIS:  cpu time    0.4450: real time    0.4503
    ORTHCH:  cpu time    0.0973: real time    0.0980
       DOS:  cpu time    0.0003: real time    0.0003
    --------------------------------------------
      LOOP:  cpu time    0.8791: real time    0.8870

 eigenvalue-minimisations  :   608
 total energy-change (2. order) :-0.3434876E+01  (-0.2828011E+01)
 number of electron     400.0000000 magnetization     100.0000000
 augmentation part      400.0000000 magnetization     100.0000000

 Free energy of the ion-electron system (eV)
  ---------------------------------------------------
  alpha Z        PSCENC =       316.14514549
  Ewald energy   TEWEN  =    -14958.24709597
  -Hartree energ DENC   =       -91.04707160
  -exchange      EXHF   =         0.00000000
  -V(xc)+E(xc)   XCENC  =      -777.86642143
  PAW double counting   =      8803.41707833    -7043.47671478
  entropy T*S    EENTRO =        -0.03644057
  eigenvalues    EBANDS =      3041.03193781
  atomic energy  EATOM  =     10306.12861560
  Solvation  Ediel_sol  =         0.00000000
  ---------------------------------------------------
  free energy    TOTEN  =      -403.95096713 eV

  energy without entropy =     -403.91452656  energy(sigma->0) =     -403.93274685


--------------------------------------------------------------------------------------------------------




--------------------------------------- Iteration      1(   8)  ---------------------------------------


    EDDIAG:  cpu time    0.3372: real time    0.3391
  RMM-DIIS:  cpu time    0.4334: real time    0.4383
    ORTHCH:  cpu time    0.0977: real time    0.0983
       DOS:  cpu time    0.0003: real time    0.0003
    --------------------------------------------
      LOOP:  cpu time    0.8686: real time    0.8761

 eigenvalue-minimisations  :   608
 total energy-change (2. order) :-0.1387838E+01  (-0.1132725E+01)
 number of electron     400.0000000 magnetization     100.0000000
 augmentation part      400.0000000 magnetization     100.0000000

 Free energy of the ion-electron system (eV)
  ---------------------------------------------------
  alpha Z        PSCENC =       316.14514549
  Ewald energy   TEWEN  =    -14958.24709597
  -Hartree energ DENC   =       -91.04707160
  -exchange      EXHF   =         0.00000000
  -V(xc)+E(xc)   XCENC  =      -777.86642143
  PAW double counting   =      8803.41707833    -7043.47671478
  entropy T*S    EENTRO =        -0.03655190
  eigenvalues    EBANDS =      3039.64421078
  atomic energy  EATOM  =     10306.12861560
  Solvation  Ediel_sol  =         0.00000000
  ---------------------------------------------------
  free energy    TOTEN  =      -405.33880549 eV

  energy without entropy =     -405.30225359  energy(sigma->0) =     -405.32052954


--------------------------------------------------------------------------------------------------------




--------------------------------------- Iteration      1(   9)  ---------------------------------------


    EDDIAG:  cpu time    0.3367: real time    0.3387
  RMM-DIIS:  cpu time    0.9585: real time    0.9706
    ORTHCH:  cpu time    0.0974: real time    0.0980
       DOS:  cpu time    0.0003: real time    0.0003
    --------------------------------------------
      LOOP:  cpu time    1.3929: real time    1.4076

 eigenvalue-minimisations  :  1507
 total energy-change (2. order) :-0.7859339E+00  (-0.7212561E+00)
 number of electron     400.0000000 magnetization     100.0000000
 augmentation part      400.0000000 magnetization     100.0000000

 Free energy of the ion-electron system (eV)
  ---------------------------------------------------
  alpha Z        PSCENC =       316.14514549
  Ewald energy   TEWEN  =    -14958.24709597
  -Hartree energ DENC   =       -91.04707160
  -exchange      EXHF   =         0.00000000
  -V(xc)+E(xc)   XCENC  =      -777.86642143
  PAW double counting   =      8803.41707833    -7043.47671478
  entropy T*S    EENTRO =        -0.03952806
  eigenvalues    EBANDS =      3038.86125300
  atomic energy  EATOM  =     10306.12861560
  Solvation  Ediel_sol  =         0.00000000
  ---------------------------------------------------
  free energy    TOTEN  =      -406.12473943 eV

  energy without entropy =     -406.08521137  energy(sigma->0) =     -406.10497540


--------------------------------------------------------------------------------------------------------




--------------------------------------- Iteration      1(  10)  ---------------------------------------


    EDDIAG:  cpu time    0.3362: real time    0.3382
  RMM-DIIS:  cpu time    0.9402: real time    0.9521
    ORTHCH:  cpu time    0.0974: real time    0.0980
       DOS:  cpu time    0.0003: real time    0.0003
    --------------------------------------------
      LOOP:  cpu time    1.3743: real time    1.3887

 eigenvalue-minimisations  :  1473
 total energy-change (2. order) :-0.1033555E+00  (-0.5520405E-01)
 number of electron     400.0000000 magnetization     100.0000000
 augmentation part      400.0000000 magnetization     100.0000000

 Free energy of the ion-electron system (eV)
  ---------------------------------------------------
  alpha Z        PSCENC =       316.14514549
  Ewald energy   TEWEN  =    -14958.24709597
  -Hartree energ DENC   =       -91.04707160
  -exchange      EXHF   =         0.00000000
  -V(xc)+E(xc)   XCENC  =      -777.86642143
  PAW double counting   =      8803.41707833    -7043.47671478
  entropy T*S    EENTRO =        -0.04028585
  eigenvalues    EBANDS =      3038.75865531
  atomic energy  EATOM  =     10306.12861560
  Solvation  Ediel_sol  =         0.00000000
  ---------------------------------------------------
  free energy    TOTEN  =      -406.22809491 eV

  energy without entropy =     -406.18780906  energy(sigma->0) =     -406.20795198


--------------------------------------------------------------------------------------------------------




--------------------------------------- Iteration      1(  11)  ---------------------------------------


    EDDIAG:  cpu time    0.3366: real time    0.3387
  RMM-DIIS:  cpu time    0.9027: real time    0.9139
    ORTHCH:  cpu time    0.0976: real time    0.0983
       DOS:  cpu time    0.0003: real time    0.0003
    --------------------------------------------
      LOOP:  cpu time    1.3372: real time    1.3512

 eigenvalue-minimisations  :  1378
 total energy-change (2. order) :-0.2444329E-02  (-0.1738327E-02)
 number of electron     400.0000000 magnetization     100.0000000
 augmentation part      400.0000000 magnetization     100.0000000

 Free energy of the ion-electron system (eV)
  ---------------------------------------------------
  alpha Z        PSCENC =       316.14514549
  Ewald energy   TEWEN  =    -14958.24709597
  -Hartree energ DENC   =       -91.04707160
  -exchange      EXHF   =         0.00000000
  -V(xc)+E(xc)   XCENC  =      -777.86642143
  PAW double counting   =      8803.41707833    -7043.47671478
  entropy T*S    EENTRO =        -0.04027637
  eigenvalues    EBANDS =      3038.75620149
  atomic energy  EATOM  =     10306.12861560
  Solvation  Ediel_sol  =         0.00000000
  ---------------------------------------------------
  free energy    TOTEN  =      -406.23053924 eV

  energy without entropy =     -406.19026287  energy(sigma->0) =     -406.21040106


--------------------------------------------------------------------------------------------------------




--------------------------------------- Iteration      1(  12)  ---------------------------------------


    EDDIAG:  cpu time    0.3362: real time    0.3382
  RMM-DIIS:  cpu time    0.8030: real time    0.8131
    ORTHCH:  cpu time    0.0975: real time    0.0981
       DOS:  cpu time    0.0003: real time    0.0003
    CHARGE:  cpu time    0.0442: real time    0.0444
    MIXING:  cpu time    0.0010: real time    0.0010
    --------------------------------------------
      LOOP:  cpu time    1.2822: real time    1.2951

 eigenvalue-minimisations  :  1165
 total energy-change (2. order) :-0.1600540E-04  (-0.1608955E-04)
 number of electron     400.0000142 magnetization      66.4356088
 augmentation part      -23.2425349 magnetization      42.1175509

 Broyden mixing:
  rms(total) = 0.60886E+01    rms(broyden)= 0.60885E+01
  rms(prec ) = 0.62524E+01
  weight for this iteration     100.00

 Free energy of the ion-electron system (eV)
  ---------------------------------------------------
  alpha Z        PSCENC =       316.14514549
  Ewald energy   TEWEN  =    -14958.24709597
  -Hartree energ DENC   =       -91.04707160
  -exchange      EXHF   =         0.00000000
  -V(xc)+E(xc)   XCENC  =      -777.86642143
  PAW double counting   =      8803.41707833    -7043.47671478
  entropy T*S    EENTRO =        -0.04027641
  eigenvalues    EBANDS =      3038.75618553
  atomic energy  EATOM  =     10306.12861560
  Solvation  Ediel_sol  =         0.00000000
  ---------------------------------------------------
  free energy    TOTEN  =      -406.23055525 eV

  energy without entropy =     -406.19027883  energy(sigma->0) =     -406.21041704


--------------------------------------------------------------------------------------------------------




--------------------------------------- Iteration      1(  13)  ---------------------------------------


    POTLOK:  cpu time    0.0528: real time    0.0532
    SETDIJ:  cpu time    0.0348: real time    0.0349
    EDDIAG:  cpu time    0.3368: real time    0.3387
  RMM-DIIS:  cpu time    0.8923: real time    0.9034
    ORTHCH:  cpu time    0.0991: real time    0.0998
       DOS:  cpu time    0.0004: real time    0.0004
    CHARGE:  cpu time    0.0450: real time    0.0452
    MIXING:  cpu time    0.0012: real time    0.0012
    --------------------------------------------
      LOOP:  cpu time    1.4625: real time    1.4767

 eigenvalue-minimisations  :  1351
 total energy-change (2. order) :-0.7029301E+01  (-0.1033693E+01)
 number of electron     400.0000142 magnetization      29.3525673
 augmentation part      -23.3003553 magnetization      11.9004859

 Broyden mixing:
  rms(total) = 0.36542E+01    rms(broyden)= 0.36542E+01
  rms(prec ) = 0.37172E+01
  weight for this iteration     100.00

 eigenvalues of (default mixing * dielectric matrix)
  average eigenvalue GAMMA=   1.2535
  1.2535

 Free energy of the ion-electron system (eV)
  ---------------------------------------------------
  alpha Z        PSCENC =       316.14514549
  Ewald energy   TEWEN  =    -14958.24709597
  -Hartree energ DENC   =      -108.25183797
  -exchange      EXHF   =         0.00000000
  -V(xc)+E(xc)   XCENC  =      -777.82737475
  PAW double counting   =     30268.69879440   -28514.33889410
  entropy T*S    EENTRO =        -0.05363458
  eigenvalues    EBANDS =      3054.48642586
  atomic energy  EATOM  =     10306.12861560
  Solvation  Ediel_sol  =         0.00000000
  ---------------------------------------------------
  free energy    TOTEN  =      -413.25985604 eV

  energy without entropy =     -413.20622146  energy(sigma->0) =     -413.23303875


--------------------------------------------------------------------------------------------------------




--------------------------------------- Iteration      1(  14)  ---------------------------------------


    POTLOK:  cpu time    0.0526: real time    0.0529
    SETDIJ:  cpu time    0.0348: real time    0.0349
    EDDIAG:  cpu time    0.3347: real time    0.3366
  RMM-DIIS:  cpu time    0.8865: real time    0.8974
    ORTHCH:  cpu time    0.0987: real time    0.1193
       DOS:  cpu time    0.0003: real time    0.0003
    CHARGE:  cpu time    0.0450: real time    0.0452
    MIXING:  cpu time    0.0013: real time    0.0013
    --------------------------------------------
      LOOP:  cpu time    1.4539: real time    1.4879

 eigenvalue-minimisations  :  1340
 total energy-change (2. order) :-0.8101861E+01  (-0.4796836E+00)
 number of electron     400.0000143 magnetization      12.2640015
 augmentation part      -23.4336004 magnetization       5.2392700

 Broyden mixing:
  rms(total) = 0.17170E+01    rms(broyden)= 0.17170E+01
  rms(prec ) = 0.18315E+01
  weight for this iteration     100.00

 eigenvalues of (default mixing * dielectric matrix)
  average eigenvalue GAMMA=   1.4702
  2.3610  0.5795

 Free energy of the ion-electron system (eV)
  ---------------------------------------------------
  alpha Z        PSCENC =       316.14514549
  Ewald energy   TEWEN  =    -14958.24709597
  -Hartree energ DENC   =      -116.98319379
  -exchange      EXHF   =         0.00000000
  -V(xc)+E(xc)   XCENC  =      -773.35002480
  PAW double counting   =     66907.72555682   -65158.32815660
  entropy T*S    EENTRO =        -0.04625872
  eigenvalues    EBANDS =      3055.59369492
  atomic energy  EATOM  =     10306.12861560
  Solvation  Ediel_sol  =         0.00000000
  ---------------------------------------------------
  free energy    TOTEN  =      -421.36171705 eV

  energy without entropy =     -421.31545834  energy(sigma->0) =     -421.33858769


--------------------------------------------------------------------------------------------------------




--------------------------------------- Iteration      1(  15)  ---------------------------------------


    POTLOK:  cpu time    0.0525: real time    0.0529
    SETDIJ:  cpu time    0.0348: real time    0.0349
    EDDIAG:  cpu time    0.3349: real time    0.3368
  RMM-DIIS:  cpu time    0.9193: real time    0.9307
    ORTHCH:  cpu time    0.0994: real time    0.1000
       DOS:  cpu time    0.0003: real time    0.0003
    CHARGE:  cpu time    0.0438: real time    0.0440
    MIXING:  cpu time    0.0014: real time    0.0014
    --------------------------------------------
      LOOP:  cpu time    1.4865: real time    1.5011

 eigenvalue-minimisations  :  1405
 total energy-change (2. order) :-0.7495503E+00  (-0.8506364E-01)
 number of electron     400.0000144 magnetization       8.3020116
 augmentation part      -23.4969167 magnetization       5.2617596

 Broyden mixing:
  rms(total) = 0.37085E+00    rms(broyden)= 0.37084E+00
  rms(prec ) = 0.43645E+00
  weight for this iteration     100.00

 eigenvalues of (default mixing * dielectric matrix)
  average eigenvalue GAMMA=   1.2868
  2.3857  0.8765  0.5981

 Free energy of the ion-electron system (eV)
  ---------------------------------------------------
  alpha Z        PSCENC =       316.14514549
  Ewald energy   TEWEN  =    -14958.24709597
  -Hartree energ DENC   =      -122.66905309
  -exchange      EXHF   =         0.00000000
  -V(xc)+E(xc)   XCENC  =      -771.01761953
  PAW double counting   =     84209.60744673   -82462.89345055
  entropy T*S    EENTRO =        -0.04276739
  eigenvalues    EBANDS =      3060.87751133
  atomic energy  EATOM  =     10306.12861560
  Solvation  Ediel_sol  =         0.00000000
  ---------------------------------------------------
  free energy    TOTEN  =      -422.11126738 eV

  energy without entropy =     -422.06849999  energy(sigma->0) =     -422.08988368


--------------------------------------------------------------------------------------------------------




--------------------------------------- Iteration      1(  16)  ---------------------------------------


    POTLOK:  cpu time    0.0525: real time    0.0529
    SETDIJ:  cpu time    0.0349: real time    0.0350
    EDDIAG:  cpu time    0.3358: real time    0.3377
  RMM-DIIS:  cpu time    0.9079: real time    0.9193
    ORTHCH:  cpu time    0.0993: real time    0.0999
       DOS:  cpu time    0.0004: real time    0.0004
    CHARGE:  cpu time    0.0438: real time    0.0440
    MIXING:  cpu time    0.0015: real time    0.0015
    --------------------------------------------
      LOOP:  cpu time    1.4760: real time    1.4907

 eigenvalue-minimisations  :  1405
 total energy-change (2. order) :-0.1698760E+00  (-0.3137215E-01)
 number of electron     400.0000144 magnetization       4.6872532
 augmentation part      -23.5082226 magnetization       2.6883510

 Broyden mixing:
  rms(total) = 0.24662E+00    rms(broyden)= 0.24662E+00
  rms(prec ) = 0.27471E+00
  weight for this iteration     100.00

 eigenvalues of (default mixing * dielectric matrix)
  average eigenvalue GAMMA=   1.3855
  2.3489  1.8016  0.7754  0.6159

 Free energy of the ion-electron system (eV)
  ---------------------------------------------------
  alpha Z        PSCENC =       316.14514549
  Ewald energy   TEWEN  =    -14958.24709597
  -Hartree energ DENC   =      -122.26916677
  -exchange      EXHF   =         0.00000000
  -V(xc)+E(xc)   XCENC  =      -770.82275416
  PAW double counting   =     84334.17712880   -82587.68874134
  entropy T*S    EENTRO =        -0.03914748
  eigenvalues    EBANDS =      3060.33487245
  atomic energy  EATOM  =     10306.12861560
  Solvation  Ediel_sol  =         0.00000000
  ---------------------------------------------------
  free energy    TOTEN  =      -422.28114339 eV

  energy without entropy =     -422.24199591  energy(sigma->0) =     -422.26156965


--------------------------------------------------------------------------------------------------------




--------------------------------------- Iteration      1(  17)  ---------------------------------------


    POTLOK:  cpu time    0.0525: real time    0.0529
    SETDIJ:  cpu time    0.0352: real time    0.0353
    EDDIAG:  cpu time    0.3350: real time    0.3369
  RMM-DIIS:  cpu time    0.9256: real time    0.9371
    ORTHCH:  cpu time    0.0992: real time    0.0999
       DOS:  cpu time    0.0004: real time    0.0004
    CHARGE:  cpu time    0.0438: real time    0.0440
    MIXING:  cpu time    0.0016: real time    0.0016
    --------------------------------------------
      LOOP:  cpu time    1.4932: real time    1.5080

 eigenvalue-minimisations  :  1426
 total energy-change (2. order) :-0.9689864E-01  (-0.9867223E-02)
 number of electron     400.0000144 magnetization       1.8196642
 augmentation part      -23.5160457 magnetization       0.5408122

 Broyden mixing:
  rms(total) = 0.13360E+00    rms(broyden)= 0.13360E+00
  rms(prec ) = 0.16252E+00
  weight for this iteration     100.00

 eigenvalues of (default mixing * dielectric matrix)
  average eigenvalue GAMMA=   1.3902
  2.3546  2.3546  0.6138  0.8760  0.7520

 Free energy of the ion-electron system (eV)
  ---------------------------------------------------
  alpha Z        PSCENC =       316.14514549
  Ewald energy   TEWEN  =    -14958.24709597
  -Hartree energ DENC   =      -121.79543801
  -exchange      EXHF   =         0.00000000
  -V(xc)+E(xc)   XCENC  =      -770.67200422
  PAW double counting   =     83698.14275391   -81951.80615719
  entropy T*S    EENTRO =        -0.03565206
  eigenvalues    EBANDS =      3059.76179043
  atomic energy  EATOM  =     10306.12861560
  Solvation  Ediel_sol  =         0.00000000
  ---------------------------------------------------
  free energy    TOTEN  =      -422.37804203 eV

  energy without entropy =     -422.34238997  energy(sigma->0) =     -422.36021600


--------------------------------------------------------------------------------------------------------




--------------------------------------- Iteration      1(  18)  ---------------------------------------


    POTLOK:  cpu time    0.0525: real time    0.0529
    SETDIJ:  cpu time    0.0349: real time    0.0350
    EDDIAG:  cpu time    0.3370: real time    0.3389
  RMM-DIIS:  cpu time    0.8875: real time    0.9191
    ORTHCH:  cpu time    0.0996: real time    0.1002
       DOS:  cpu time    0.0004: real time    0.0004
    CHARGE:  cpu time    0.0439: real time    0.0441
    MIXING:  cpu time    0.0017: real time    0.0017
    --------------------------------------------
      LOOP:  cpu time    1.4574: real time    1.4922

 eigenvalue-minimisations  :  1407
 total energy-change (2. order) :-0.3975233E-01  (-0.3572788E-02)
 number of electron     400.0000144 magnetization       0.8410175
 augmentation part      -23.5197875 magnetization       0.2197715

 Broyden mixing:
  rms(total) = 0.54486E-01    rms(broyden)= 0.54483E-01
  rms(prec ) = 0.72286E-01
  weight for this iteration     100.00

 eigenvalues of (default mixing * dielectric matrix)
  average eigenvalue GAMMA=   1.3635
  2.6445  2.3664  1.1133  0.8461  0.6053  0.6053

 Free energy of the ion-electron system (eV)
  ---------------------------------------------------
  alpha Z        PSCENC =       316.14514549
  Ewald energy   TEWEN  =    -14958.24709597
  -Hartree energ DENC   =      -121.41961420
  -exchange      EXHF   =         0.00000000
  -V(xc)+E(xc)   XCENC  =      -770.52500116
  PAW double counting   =     83133.14778343   -81386.93321429
  entropy T*S    EENTRO =        -0.03445826
  eigenvalues    EBANDS =      3059.32004502
  atomic energy  EATOM  =     10306.12861560
  Solvation  Ediel_sol  =         0.00000000
  ---------------------------------------------------
  free energy    TOTEN  =      -422.41779436 eV

  energy without entropy =     -422.38333609  energy(sigma->0) =     -422.40056522


--------------------------------------------------------------------------------------------------------




--------------------------------------- Iteration      1(  19)  ---------------------------------------


    POTLOK:  cpu time    0.0525: real time    0.0528
    SETDIJ:  cpu time    0.0349: real time    0.0350
    EDDIAG:  cpu time    0.3378: real time    0.3398
  RMM-DIIS:  cpu time    0.9145: real time    0.9261
    ORTHCH:  cpu time    0.0997: real time    0.1003
       DOS:  cpu time    0.0004: real time    0.0004
    CHARGE:  cpu time    0.0436: real time    0.0438
    MIXING:  cpu time    0.0018: real time    0.0018
    --------------------------------------------
      LOOP:  cpu time    1.4852: real time    1.5000

 eigenvalue-minimisations  :  1413
 total energy-change (2. order) :-0.4648367E-02  (-0.1264951E-02)
 number of electron     400.0000144 magnetization       0.3537141
 augmentation part      -23.5212102 magnetization       0.0256519

 Broyden mixing:
  rms(total) = 0.24681E-01    rms(broyden)= 0.24679E-01
  rms(prec ) = 0.30114E-01
  weight for this iteration     100.00

 eigenvalues of (default mixing * dielectric matrix)
  average eigenvalue GAMMA=   1.3314
  2.8517  2.3805  1.1962  0.9423  0.7767  0.6173  0.5550

 Free energy of the ion-electron system (eV)
  ---------------------------------------------------
  alpha Z        PSCENC =       316.14514549
  Ewald energy   TEWEN  =    -14958.24709597
  -Hartree energ DENC   =      -121.72044928
  -exchange      EXHF   =         0.00000000
  -V(xc)+E(xc)   XCENC  =      -770.45508220
  PAW double counting   =     83024.92400605   -81278.75772069
  entropy T*S    EENTRO =        -0.03700245
  eigenvalues    EBANDS =      3059.59714073
  atomic energy  EATOM  =     10306.12861560
  Solvation  Ediel_sol  =         0.00000000
  ---------------------------------------------------
  free energy    TOTEN  =      -422.42244272 eV

  energy without entropy =     -422.38544028  energy(sigma->0) =     -422.40394150


--------------------------------------------------------------------------------------------------------




--------------------------------------- Iteration      1(  20)  ---------------------------------------


    POTLOK:  cpu time    0.0525: real time    0.0528
    SETDIJ:  cpu time    0.0349: real time    0.0350
    EDDIAG:  cpu time    0.3386: real time    0.3405
  RMM-DIIS:  cpu time    0.9424: real time    0.9541
    ORTHCH:  cpu time    0.0995: real time    0.1001
       DOS:  cpu time    0.0004: real time    0.0004
    CHARGE:  cpu time    0.0436: real time    0.0438
    MIXING:  cpu time    0.0020: real time    0.0020
    --------------------------------------------
      LOOP:  cpu time    1.5138: real time    1.5287

 eigenvalue-minimisations  :  1457
 total energy-change (2. order) :-0.1209290E-02  (-0.2455706E-03)
 number of electron     400.0000144 magnetization       0.1433867
 augmentation part      -23.5216376 magnetization      -0.0086109

 Broyden mixing:
  rms(total) = 0.10862E-01    rms(broyden)= 0.10860E-01
  rms(prec ) = 0.15300E-01
  weight for this iteration     100.00

 eigenvalues of (default mixing * dielectric matrix)
  average eigenvalue GAMMA=   1.3238
  3.0204  2.3522  1.4537  1.1352  0.8506  0.6349  0.6349  0.5083

 Free energy of the ion-electron system (eV)
  ---------------------------------------------------
  alpha Z        PSCENC =       316.14514549
  Ewald energy   TEWEN  =    -14958.24709597
  -Hartree energ DENC   =      -121.75728833
  -exchange      EXHF   =         0.00000000
  -V(xc)+E(xc)   XCENC  =      -770.43511337
  PAW double counting   =     82893.89170625   -81147.74011646
  entropy T*S    EENTRO =        -0.03747537
  eigenvalues    EBANDS =      3059.62797016
  atomic energy  EATOM  =     10306.12861560
  Solvation  Ediel_sol  =         0.00000000
  ---------------------------------------------------
  free energy    TOTEN  =      -422.42365201 eV

  energy without entropy =     -422.38617665  energy(sigma->0) =     -422.40491433


--------------------------------------------------------------------------------------------------------




--------------------------------------- Iteration      1(  21)  ---------------------------------------


    POTLOK:  cpu time    0.0526: real time    0.0532
    SETDIJ:  cpu time    0.0349: real time    0.0350
    EDDIAG:  cpu time    0.3373: real time    0.3393
  RMM-DIIS:  cpu time    0.9415: real time    0.9537
    ORTHCH:  cpu time    0.0993: real time    0.0999
       DOS:  cpu time    0.0004: real time    0.0004
    CHARGE:  cpu time    0.0436: real time    0.0438
    MIXING:  cpu time    0.0021: real time    0.0022
    --------------------------------------------
      LOOP:  cpu time    1.5118: real time    1.5274

 eigenvalue-minimisations  :  1451
 total energy-change (2. order) :-0.1842869E-03  (-0.5744673E-04)
 number of electron     400.0000144 magnetization       0.0692531
 augmentation part      -23.5215387 magnetization       0.0003674

 Broyden mixing:
  rms(total) = 0.52637E-02    rms(broyden)= 0.52626E-02
  rms(prec ) = 0.67668E-02
  weight for this iteration     100.00

 eigenvalues of (default mixing * dielectric matrix)
  average eigenvalue GAMMA=   1.3219
  3.1144  2.2790  1.8708  1.1482  0.9242  0.8165  0.6190  0.6190  0.5056

 Free energy of the ion-electron system (eV)
  ---------------------------------------------------
  alpha Z        PSCENC =       316.14514549
  Ewald energy   TEWEN  =    -14958.24709597
  -Hartree energ DENC   =      -121.77692945
  -exchange      EXHF   =         0.00000000
  -V(xc)+E(xc)   XCENC  =      -770.43109964
  PAW double counting   =     82847.25200612   -81101.10384609
  entropy T*S    EENTRO =        -0.03781412
  eigenvalues    EBANDS =      3059.64718176
  atomic energy  EATOM  =     10306.12861560
  Solvation  Ediel_sol  =         0.00000000
  ---------------------------------------------------
  free energy    TOTEN  =      -422.42383630 eV

  energy without entropy =     -422.38602218  energy(sigma->0) =     -422.40492924


--------------------------------------------------------------------------------------------------------




--------------------------------------- Iteration      1(  22)  ---------------------------------------


    POTLOK:  cpu time    0.0541: real time    0.0549
    SETDIJ:  cpu time    0.0351: real time    0.0352
    EDDIAG:  cpu time    0.3369: real time    0.3388
  RMM-DIIS:  cpu time    0.9322: real time    0.9437
    ORTHCH:  cpu time    0.0991: real time    0.0997
       DOS:  cpu time    0.0004: real time    0.0004
    CHARGE:  cpu time    0.0436: real time    0.0438
    MIXING:  cpu time    0.0023: real time    0.0023
    --------------------------------------------
      LOOP:  cpu time    1.5037: real time    1.5188

 eigenvalue-minimisations  :  1432
 total energy-change (2. order) :-0.3578392E-04  (-0.1518125E-04)
 number of electron     400.0000144 magnetization       0.0273412
[...]
   0.667E+01 0.125E+02 0.196E+02   -.646E+01 -.121E+02 -.195E+02   -.109E+01 -.717E+00 -.592E+00   -.210E-02 0.131E-02 0.326E-03
   -.113E+02 -.811E+01 -.126E+02   0.943E+01 0.567E+01 0.137E+02   0.317E+01 0.408E+01 -.665E+00   0.163E-02 0.241E-03 -.108E-02
   0.896E+00 0.250E+01 0.899E+01   -.757E+00 -.253E+01 -.799E+01   -.370E+00 -.208E+00 -.229E+01   0.258E-02 -.688E-03 -.841E-04
   0.804E+00 0.289E+01 -.965E+01   -.285E+01 -.265E+01 0.103E+02   0.263E+01 -.105E+01 -.122E+01   -.222E-02 -.857E-03 -.936E-03
   -.337E+01 -.542E+01 -.216E+02   0.240E+01 0.492E+01 0.207E+02   0.159E+01 0.281E+00 0.203E+01   0.154E-02 0.158E-02 -.709E-03
   -.937E+01 -.929E+00 -.963E+01   0.790E+01 -.589E+00 0.109E+02   0.251E+01 0.188E+01 -.157E+01   0.235E-02 -.119E-02 -.167E-02
   -.933E+01 -.505E+01 0.536E+01   0.853E+01 0.545E+01 -.546E+01   0.170E+01 -.325E+00 0.522E+00   -.160E-02 0.593E-03 0.782E-03
   0.671E+01 0.156E+02 0.563E+01   -.613E+01 -.128E+02 -.414E+01   -.147E+01 -.584E+01 -.215E+01   0.111E-02 -.109E-02 -.934E-03
   -.119E+01 0.834E+01 -.612E+01   0.965E+00 -.811E+01 0.732E+01   0.697E+00 -.117E+01 -.909E+00   0.114E-02 -.604E-03 -.150E-02
   0.107E+02 0.961E+00 -.148E+02   -.847E+01 -.840E+00 0.175E+02   -.316E+01 -.155E+01 -.284E+01   0.877E-03 0.164E-02 -.713E-03
   0.153E+02 -.479E+01 -.175E+02   -.145E+02 0.595E+01 0.182E+02   -.193E+01 -.912E+00 -.115E+00   -.558E-03 0.492E-03 -.776E-03
   -.865E+01 0.867E+01 0.660E+01   0.706E+01 -.849E+01 -.710E+01   0.308E+01 -.977E+00 -.133E-01   0.184E-02 -.721E-03 -.120E-02
   -.502E+01 -.113E+02 0.666E+01   0.481E+01 0.121E+02 -.630E+01   0.449E+00 -.227E+00 -.379E+00   -.223E-02 0.299E-03 -.792E-04
   0.666E+01 0.371E+02 0.152E+00   -.596E+01 -.357E+02 0.119E+01   -.162E+01 -.481E+01 -.889E+00   -.934E-03 0.104E-02 0.594E-03
   -.215E+02 -.565E+01 0.780E+01   0.223E+02 0.562E+01 -.715E+01   -.387E+00 0.949E-01 -.133E+01   0.620E-03 0.483E-03 0.958E-03
   -.798E+01 -.880E+01 0.402E+01   0.767E+01 0.714E+01 -.547E+01   0.122E+01 0.316E+01 0.204E+01   -.158E-02 0.143E-02 -.302E-03
   0.484E+01 0.283E+01 0.204E+01   -.355E+01 -.294E+01 -.133E+01   -.165E+01 0.442E+00 -.533E-01   0.224E-02 -.716E-03 0.877E-03
   0.917E+01 0.206E+02 0.313E+01   -.965E+01 -.203E+02 -.301E+01   0.390E+00 -.316E+01 -.166E+00   0.247E-03 -.192E-02 0.149E-02
   -.258E+02 -.119E+02 0.917E+01   0.266E+02 0.115E+02 -.957E+01   0.351E+00 0.768E+00 0.248E+00   -.897E-03 -.118E-02 0.972E-03
   0.370E+00 -.142E+02 -.122E+02   0.176E+00 0.123E+02 0.991E+01   -.886E+00 0.369E+01 0.448E+01   -.166E-02 0.380E-03 -.819E-03
   0.167E+02 -.125E+02 0.619E+01   -.149E+02 0.120E+02 -.658E+01   -.409E+01 0.137E+01 0.246E-01   0.180E-02 0.152E-02 -.660E-03
   -.102E+01 0.602E+01 -.126E+02   0.218E+00 -.574E+01 0.124E+02   -.619E-01 -.111E+01 0.159E-01   -.323E-03 0.127E-02 -.610E-03
   -.244E+00 -.917E+01 0.279E+02   0.127E+00 0.841E+01 -.273E+02   -.217E+00 0.956E+00 -.210E+01   0.242E-02 0.185E-02 0.167E-03
   0.663E+01 0.132E+02 -.192E+01   -.602E+01 -.132E+02 0.413E+00   -.855E+00 -.901E+00 0.204E+01   0.254E-02 -.154E-02 0.171E-02
   0.378E+01 0.497E+01 0.118E+02   -.439E+01 -.592E+01 -.106E+02   0.524E-01 0.533E+00 -.279E+01   0.149E-02 -.127E-02 -.141E-03
   -.163E+01 -.117E+02 0.951E+01   0.193E+01 0.981E+01 -.898E+01   0.659E+00 0.267E+01 -.139E+01   -.102E-03 0.122E-02 -.851E-03
   0.597E-01 0.163E+02 0.216E+02   -.670E-01 -.159E+02 -.229E+02   -.179E+01 -.993E+00 0.185E+01   -.168E-02 0.290E-03 0.379E-03
   0.122E+02 -.701E+01 -.131E+02   -.118E+02 0.794E+01 0.136E+02   -.434E+00 -.127E+01 0.381E-01   -.264E-02 -.126E-02 0.292E-03
   0.403E+01 0.742E+01 -.137E+02   -.392E+01 -.747E+01 0.106E+02   -.696E+00 -.796E+00 0.537E+01   0.170E-02 0.140E-02 0.869E-03
   0.529E+00 0.190E+01 -.567E+01   -.669E+00 -.200E+01 0.593E+01   -.168E+00 -.584E+00 0.370E+00   -.133E-03 -.125E-02 -.119E-02
   0.105E+01 0.129E+02 0.311E+02   -.101E+01 -.113E+02 -.302E+02   -.469E+00 -.253E+01 -.259E+01   0.253E-03 0.157E-02 0.706E-03
   0.399E+01 0.118E-01 0.413E+01   -.276E+01 -.231E+01 -.455E+01   -.123E+01 0.263E+01 0.136E+01   0.125E-02 0.160E-02 -.525E-03
   -.844E+01 0.261E+01 0.244E+00   0.707E+01 -.488E+01 0.184E+01   0.261E+01 0.334E+01 -.325E+01   -.901E-03 0.271E-03 -.268E-03
   0.621E+01 0.186E+02 0.371E+01   -.431E+01 -.161E+02 -.438E+01   -.394E+01 -.442E+01 0.122E+01   -.633E-03 -.114E-04 -.616E-03
   0.101E+02 -.640E+01 0.441E+00   -.102E+02 0.444E+01 -.807E+00   -.809E+00 0.384E+01 0.664E-01   -.138E-03 -.390E-03 -.439E-03
   -.167E+02 -.115E+01 -.807E+01   0.143E+02 0.213E+01 0.804E+01   0.382E+01 -.116E+01 -.704E+00   0.809E-03 0.573E-03 -.904E-03
   0.782E+01 -.398E+00 -.276E+02   -.872E+01 -.288E-01 0.281E+02   0.618E+00 0.334E-01 0.548E+00   -.186E-02 0.136E-03 -.261E-03
   -.175E+02 -.123E+02 -.997E+01   0.150E+02 0.127E+02 0.107E+02   0.425E+01 0.199E+00 -.107E+01   -.114E-02 -.130E-02 -.378E-03
   -.943E+01 0.102E+02 0.123E+02   0.957E+01 -.843E+01 -.113E+02   0.853E+00 -.350E+01 -.215E+01   0.162E-02 -.846E-03 0.543E-03
   0.115E+02 -.657E+01 0.749E+01   -.108E+02 0.822E+01 -.863E+01   -.263E+01 -.177E+01 0.143E+01   -.743E-04 0.148E-02 0.319E-03
   0.635E+01 0.131E+02 0.679E+00   -.700E+01 -.115E+02 -.102E+01   0.195E+00 -.254E+01 0.448E+00   0.224E-02 -.658E-03 -.698E-04
   -.935E+01 -.726E+01 0.324E+01   0.979E+01 0.633E+01 -.390E+01   -.556E+00 0.206E+01 0.135E+01   0.153E-02 -.337E-03 0.464E-03
   0.334E+02 -.482E+00 0.114E+02   -.331E+02 -.296E+00 -.101E+02   -.203E+01 0.125E+01 -.152E+01   -.155E-02 -.134E-02 0.137E-02
   0.128E+02 -.213E+02 -.362E+01   -.107E+02 0.206E+02 0.396E+01   -.338E+01 0.211E+01 -.132E+01   0.149E-02 0.136E-02 0.153E-04
   0.104E+01 -.170E+02 -.472E+00   -.134E+01 0.154E+02 0.900E+00   0.372E+00 0.380E+01 -.154E+01   -.104E-02 0.932E-03 -.128E-03
   0.179E+02 0.743E+01 0.798E+01   -.168E+02 -.593E+01 -.984E+01   -.181E+01 -.250E+01 0.211E+01   -.163E-02 -.116E-02 0.429E-03
   0.103E+02 0.973E+01 0.752E+01   -.900E+01 -.844E+01 -.571E+01   -.239E+01 -.172E+01 -.235E+01   0.803E-03 0.130E-05 0.147E-02
   -.190E+01 -.527E+01 -.472E+01   0.116E+01 0.454E+01 0.497E+01   0.101E+01 0.167E+01 -.775E+00   0.158E-02 0.195E-03 -.952E-03
   0.537E+01 -.748E+01 -.735E+01   -.388E+01 0.601E+01 0.527E+01   -.126E+01 0.392E+01 0.403E+01   0.220E-02 -.156E-02 0.166E-02
   0.139E+02 -.174E+01 -.562E+01   -.120E+02 0.122E+01 0.564E+01   -.278E+01 0.765E+00 0.729E+00   -.233E-02 -.351E-03 0.572E-03
   0.255E+01 -.110E+02 -.335E+01   -.213E+01 0.959E+01 0.355E+01   -.448E+00 0.216E+01 -.625E+00   -.228E-02 -.700E-03 -.611E-03
   -.898E+00 0.160E+02 -.364E+01   0.147E+01 -.137E+02 0.427E+01   -.520E+00 -.400E+01 -.116E+01   0.152E-02 -.130E-02 -.127E-02
   -.120E+02 0.145E+01 0.467E+01   0.117E+02 -.402E+00 -.549E+01   0.141E+01 -.323E+00 0.126E+01   0.774E-03 -.135E-02 -.539E-03
   -.186E+01 0.696E+01 -.538E+01   0.302E+01 -.424E+01 0.410E+01   -.211E+01 -.366E+01 0.167E+01   0.219E-02 -.201E-02 0.987E-03
   0.222E+00 0.390E+01 -.687E+01   -.306E+00 -.373E+01 0.600E+01   -.981E+00 -.905E-01 0.115E+01   -.900E-03 -.105E-02 -.104E-02
   0.659E+01 0.563E+01 -.255E+01   -.795E+01 -.598E+01 0.332E+01   0.146E+01 0.428E-01 -.185E+01   0.821E-03 0.112E-02 -.726E-04
   0.374E+01 0.101E+02 -.483E+01   -.308E+01 -.825E+01 0.317E+01   -.762E+00 -.317E+01 0.189E+01   0.834E-03 -.317E-03 -.173E-03
   -.874E+01 -.477E+01 0.394E+01   0.785E+01 0.512E+01 -.348E+01   0.106E+01 0.159E-01 -.917E+00   0.555E-03 -.109E-02 0.991E-03
   0.491E+01 -.139E+02 -.153E+02   -.547E+01 0.115E+02 0.152E+02   0.152E+00 0.394E+01 0.530E+00   0.963E-03 0.675E-03 -.999E-03
   -.969E+01 0.856E+01 0.445E+01   0.774E+01 -.665E+01 -.431E+01   0.415E+01 -.226E+01 0.487E+00   -.226E-02 0.608E-03 -.182E-03
   -.235E+01 0.419E+01 0.183E+02   0.281E+01 -.503E+01 -.201E+02   -.540E-01 0.133E+01 0.196E+01   -.227E-02 -.116E-02 -.751E-04
   0.184E+01 -.412E+01 0.501E+01   -.207E+01 0.326E+01 -.430E+01   0.388E-02 0.145E+01 -.111E+01   -.132E-02 0.698E-04 -.819E-03
   -.141E+02 -.949E+01 0.956E+01   0.142E+02 0.105E+02 -.101E+02   0.102E+01 -.389E+00 0.281E+00   -.151E-02 -.108E-02 -.254E-03
   -.854E+01 0.241E+01 -.262E+02   0.810E+01 -.356E+01 0.273E+02   0.318E+00 0.190E+01 -.471E+00   -.626E-03 0.105E-02 0.232E-03
   0.181E+02 -.165E+01 -.545E+01   -.182E+02 0.294E+01 0.522E+01   -.230E+00 -.163E+01 0.755E+00   -.975E-03 0.583E-04 -.386E-03
   0.186E+02 0.706E+01 0.513E+01   -.191E+02 -.535E+01 -.455E+01   -.442E+00 -.299E+01 -.802E+00   -.198E-02 0.143E-02 0.608E-04
   -.256E+02 -.107E+02 0.393E+01   0.250E+02 0.991E+01 -.265E+01   0.106E+01 0.201E+01 -.190E+01   0.156E-02 -.100E-02 0.122E-02
   -.534E+01 -.143E+02 -.118E+02   0.421E+01 0.127E+02 0.111E+02   0.179E+01 0.375E+01 0.157E+01   -.211E-02 -.492E-03 0.315E-03
   -.494E+01 0.192E+02 0.316E+01   0.585E+01 -.169E+02 -.180E+01   -.720E+00 -.500E+01 -.247E+01   -.184E-02 0.617E-03 0.373E-03
   0.525E+01 0.305E+01 -.177E+02   -.443E+01 -.367E+01 0.173E+02   -.212E+01 0.431E+00 0.113E+01   0.290E-03 -.123E-02 -.142E-02
   -.634E+01 -.150E+02 -.186E+02   0.567E+01 0.147E+02 0.174E+02   0.125E+01 0.119E+01 0.226E+01   0.167E-02 0.119E-02 0.158E-03
 -----------------------------------------------------------------------------------------------
   -.211E+00 -.127E+01 0.146E+01   0.360E-12 0.746E-13 0.238E-12   0.190E+00 0.128E+01 -.145E+01   0.150E-02 -.173E-03 -.114E-02
 
 
 POSITION                                       TOTAL-FORCE (eV/Angst)
 -----------------------------------------------------------------------------------
      1.20889      5.39230      4.26567         0.870799      0.295260      0.550653
      5.94433      1.40337      5.21102         0.043717      1.191195      0.049137
      1.73276      5.53190      8.32355        -0.221330     -0.519066     -0.228747
      7.07336      5.42545      5.23509         0.386395      0.274646     -0.708542
      6.22299      8.46659      9.04337         2.300051     -1.360448     -0.962193
      0.15811      7.30449      8.11720         0.345831      0.322350     -0.412470
      5.56739      6.14580      9.68296        -0.669551      2.038368     -0.561110
      7.06508      4.49748      9.34149         0.686215     -1.538026     -0.484157
      7.02113      7.43829      1.04730         0.121585     -2.047334      0.014365
      9.19323      5.59420      4.57158         0.131254     -0.716668     -0.028775
      9.60065      2.19897      2.51531         0.751617     -1.154542     -1.241311
      3.35617      4.42486      1.75452         1.569940      0.501640      0.512055
      8.94291      7.75871      4.00367         0.739313      0.825283      0.169780
      5.41296      9.04088      0.87006         0.474979     -0.564443      0.958554
      8.62419      0.25558      6.79576        -0.933253      0.781884      0.382603
      0.69608      3.03627      8.38195         0.548121      2.365001      0.031970
      1.90051      9.23303      5.58262        -0.551978      0.218616      0.544808
      0.14984      9.74877      4.13216        -0.649841      0.556339     -0.651715
      7.24123      9.70588      5.15795         0.802842      1.277771     -2.245505
      7.25978      8.31042      6.88955         0.340002     -1.373685      0.988980
      7.92357      4.59254      7.18842        -0.044535     -1.374965      0.915220
      9.57844      8.58096      6.02900         1.750062      1.355023      0.258372
      4.20813      1.85659      3.54840         0.731080      0.677986      1.011257
      8.78005      8.78019      8.64205        -0.650302      0.339757      0.011548
      8.17183      0.38371      2.75969         1.713185      0.835697     -0.203737
      6.25240      2.31641      9.35177        -0.573004     -0.142089     -0.829692
      9.95356      8.60198      2.11185        -0.098614      0.753547      0.911218
      9.52233      2.72389      6.57117         0.083425     -0.496688      0.426392
      8.75893      2.80863      8.90820        -2.887114      0.395810     -0.231539
      6.27006      7.64904      4.89798        -0.879803     -0.371574     -0.511756
      0.14656      9.56931      0.00670         1.250846      1.639365      0.456438
      1.07092      4.02826      2.41376        -0.229011     -0.246902     -1.293018
      7.41000      3.16932      1.00668         0.580388     -0.810491     -0.570812
      1.68952      7.76617      9.76758         0.628103     -0.219365      1.047415
      1.15895      1.60253      0.13231         1.038312      0.361667     -0.288083
      4.49770      9.68175      5.31582         0.891720      0.071531      0.419531
      2.34323      1.65142      8.17689        -0.895389     -3.079022     -0.660775
      9.83850      3.55055      0.56710         0.470597     -0.937289      0.290404
      9.71604      7.47770      0.24623        -0.913406     -1.429911     -0.172688
      8.60379      5.55266      0.83194        -1.103405      0.242677      0.610017
      9.89719      0.91010      8.50651         1.500292     -0.800504     -0.516475
      6.00824     10.19842      7.11208         0.234851      0.521701     -0.011192
      4.75278      8.56538      3.24642        -0.926549     -3.367137      0.450458
      3.50380      5.91832      3.61399         0.391774      0.060689     -0.678864
      4.82210      7.91885      6.86613         0.917026      1.503871      0.590585
      0.65219      0.82198      6.18615        -0.359920      0.325372      0.659947
      8.83653      1.42345      4.68302        -0.089674     -2.775953     -0.043317
      4.36237      3.16956      5.48938         1.155621      0.382013     -0.152629
      5.02830      0.13144      9.10711        -0.341897      1.771059      2.137312
      1.24994      9.37727      7.94423        -2.307549      0.851484     -0.373464
      4.01670      8.09409      9.37501        -0.867165     -0.834549     -0.117807
      1.05142      6.92954      5.92626        -0.331460      0.197649     -1.470189
      1.40822      1.63408      3.91758        -0.238646     -0.911059      0.538990
      2.56448      2.25068      1.98529        -0.555141     -0.420602     -1.509602
      3.41652      9.70123      7.59688         0.961265      0.777348     -0.860246
      4.93689      5.75616      5.33661        -1.797637     -0.601504      0.541198
      6.96554      2.40007      3.10649        -0.074561     -0.337762      0.508994
      1.68525      8.06560      3.33920        -0.590752     -0.843920      2.287714
      3.81268      2.01447      9.86642        -0.307725     -0.680450      0.632876
      3.38068      7.62026      5.19392        -0.422789     -0.955398     -1.637860
      2.58974      7.50497      7.41456         0.002293      0.337413      0.942896
      8.02149      9.31896      0.86788         1.233940      1.076213     -1.165585
      4.17466      5.94937      7.82546        -2.035015     -1.940441      0.548095
      4.09596      0.47754      1.43015        -0.993306      1.882475     -0.299679
      3.14182      5.97203     10.06607         1.392997     -0.187211     -0.734217
      6.13946      5.04877      1.37857        -0.282268     -0.393317      1.004232
      4.92189      2.77517      1.58955         1.820700      0.601917     -0.294776
      0.07934      4.94372      6.65594         0.998808     -1.694681     -1.157285
      8.79262      6.62496      6.55480        -1.952839     -0.110060      0.294194
      1.17735      0.32743      2.03693        -0.456787     -1.023880      0.107208
      2.80740      5.10499      5.90085        -0.111957      1.124662      0.680573
      7.87192      3.36957      5.07625        -1.743694      0.474038     -0.258705
      0.01818      6.18946      2.55595        -1.234248      1.447042     -0.974045
      7.82559      6.57142      9.05614         0.065459      2.227622     -1.108272
      7.24969      2.27683      7.07401        -0.735967     -1.003596      0.247466
      3.02876     10.13147      3.63302        -1.098328     -0.429287     -0.536181
      0.74298      5.48112      0.42136         0.280715      0.944213     -0.527765
     10.14977      3.28877      4.31353         0.233465      2.445862      1.953963
      5.73495      4.35105      3.52669        -0.917902      0.250010      0.749332
      6.57311      0.91056      0.97659        -0.031997      0.779653     -0.419788
      2.19525      3.82728     10.09558         0.054370     -1.663355     -0.522679
      3.08007      3.73959      7.78043         1.180136      0.720893      0.443347
      1.62033      3.16686      5.98646        -0.946858     -0.949201      0.378478
      4.67946      4.08553      9.68149        -1.066676      0.077718      0.274265
      2.95505      8.68456      1.61687         0.105826     -0.307278     -1.079804
      9.61473      5.20213      8.80001        -0.103774     -1.294071      0.225031
      2.92956      1.18990      5.77784         0.165905      0.360779     -0.457973
      2.60860      9.91073      9.85435        -0.410564      1.554810      0.419106
      6.22587      6.23123      7.27714         2.199326     -0.354142      0.628278
      5.52685      3.87365      7.37520         0.408105      0.480757      0.114086
      7.51644      0.42556      9.02908        -0.226091      0.594923     -0.395026
      4.50388      1.72961      7.44013         1.089513      0.609206     -0.226530
      4.62851      6.77895      1.63377        -0.129290      0.741364      0.626224
      8.54801      4.29871      2.74460        -0.368477     -0.340756      0.526313
      7.34312      6.38461      3.06975        -0.948323     -1.281126     -0.224186
      2.69863      3.56701      4.00009         0.538830      1.238779     -0.614028
      5.75131      0.25896      3.05967         0.658902      2.118522      0.857399
      7.10959      8.74496      3.05945         0.189393     -2.664979     -1.120384
      9.08027      1.26410      0.48552        -1.301958     -0.195989      0.759076
      2.16235      6.47718      1.78492         0.578427      0.943245      1.086826
 -----------------------------------------------------------------------------------
    total drift:                               -0.020079      0.010236      0.004168


--------------------------------------------------------------------------------------------------------



  FREE ENERGIE OF THE ION-ELECTRON SYSTEM (eV)
  ---------------------------------------------------
  free  energy   TOTEN  =      -422.42388345 eV

  energy  without entropy=     -422.38616761  energy(sigma->0) =     -422.40502553
 


--------------------------------------------------------------------------------------------------------


    POTLOK:  cpu time    0.0891: real time    0.0894


--------------------------------------------------------------------------------------------------------


     LOOP+:  cpu time   31.8057: real time   32.4020
    4ORBIT:  cpu time    0.0000: real time    0.0000

 total amount of memory used by VASP MPI-rank0    53950. kBytes
=======================================================================

   base      :      30000. kBytes
   nonlr-proj:       8282. kBytes
   fftplans  :       1377. kBytes
   grid      :       7520. kBytes
   one-center:        614. kBytes
   wavefun   :       6157. kBytes
 
  
  
 General timing and accounting informations for this job:
 ========================================================
  
                  Total CPU time used (sec):       32.916
                            User time (sec):       31.625
                          System time (sec):        1.291
                         Elapsed time (sec):       34.781
  
                   Maximum memory used (kb):      184656.
                   Average memory used (kb):           0.
  
                          Minor page faults:        98037
                          Major page faults:            0
                 Voluntary context switches:          902
