BEGIN_CFG
 Size
    100
 Supercell
        10.211495      0.000000      0.000000
         0.000000     10.211495      0.000000
         0.000000      0.000000     10.211495
 AtomData:  id type       cartes_x      cartes_y      cartes_z           fx          fy          fz
             1    0       1.208890      5.392300      4.265670     0.870799    0.295260    0.550653
             2    0       5.944330      1.403370      5.211020     0.043717    1.191195    0.049137
             3    0       1.732760      5.531900      8.323550    -0.221330   -0.519066   -0.228747
             4    0       7.073360      5.425450      5.235090     0.386395    0.274646   -0.708542
             5    0       6.222990      8.466590      9.043370     2.300051   -1.360448   -0.962193
             6    0       0.158110      7.304490      8.117200     0.345831    0.322350   -0.412470
             7    0       5.567390      6.145800      9.682960    -0.669551    2.038368   -0.561110
             8    0       7.065080      4.497480      9.341490     0.686215   -1.538026   -0.484157
             9    0       7.021130      7.438290      1.047300     0.121585   -2.047334    0.014365
            10    0       9.193230      5.594200      4.571580     0.131254   -0.716668   -0.028775
            11    0       9.600650      2.198970      2.515310     0.751617   -1.154542   -1.241311
            12    0       3.356170      4.424860      1.754520     1.569940    0.501640    0.512055
            13    0       8.942910      7.758710      4.003670     0.739313    0.825283    0.169780
            14    0       5.412960      9.040880      0.870060     0.474979   -0.564443    0.958554
            15    0       8.624190      0.255580      6.795760    -0.933253    0.781884    0.382603
            16    0       0.696080      3.036270      8.381950     0.548121    2.365001    0.031970
            17    0       1.900510      9.233030      5.582620    -0.551978    0.218616    0.544808
            18    0       0.149840      9.748770      4.132160    -0.649841    0.556339   -0.651715
            19    0       7.241230      9.705880      5.157950     0.802842    1.277771   -2.245505
            20    0       7.259780      8.310420      6.889550     0.340002   -1.373685    0.988980
            21    0       7.923570      4.592540      7.188420    -0.044535   -1.374965    0.915220
            22    0       9.578440      8.580960      6.029000     1.750062    1.355023    0.258372
            23    0       4.208130      1.856590      3.548400     0.731080    0.677986    1.011257
            24    0       8.780050      8.780190      8.642050    -0.650302    0.339757    0.011548
            25    0       8.171830      0.383710      2.759690     1.713185    0.835697   -0.203737
            26    0       6.252400      2.316410      9.351770    -0.573004   -0.142089   -0.829692
            27    0       9.953560      8.601980      2.111850    -0.098614    0.753547    0.911218
            28    0       9.522330      2.723890      6.571170     0.083425   -0.496688    0.426392
            29    0       8.758930      2.808630      8.908200    -2.887114    0.395810   -0.231539
            30    0       6.270060      7.649040      4.897980    -0.879803   -0.371574   -0.511756
            31    0       0.146560      9.569310      0.006700     1.250846    1.639365    0.456438
            32    0       1.070920      4.028260      2.413760    -0.229011   -0.246902   -1.293018
            33    0       7.410000      3.169320      1.006680     0.580388   -0.810491   -0.570812
            34    0       1.689520      7.766170      9.767580     0.628103   -0.219365    1.047415
            35    0       1.158950      1.602530      0.132310     1.038312    0.361667   -0.288083
            36    0       4.497700      9.681750      5.315820     0.891720    0.071531    0.419531
            37    0       2.343230      1.651420      8.176890    -0.895389   -3.079022   -0.660775
            38    0       9.838500      3.550550      0.567100     0.470597   -0.937289    0.290404
            39    0       9.716040      7.477700      0.246230    -0.913406   -1.429911   -0.172688
            40    0       8.603790      5.552660      0.831940    -1.103405    0.242677    0.610017
            41    0       9.897190      0.910100      8.506510     1.500292   -0.800504   -0.516475
            42    0       6.008240     10.198420      7.112080     0.234851    0.521701   -0.011192
            43    0       4.752780      8.565380      3.246420    -0.926549   -3.367137    0.450458
            44    0       3.503800      5.918320      3.613990     0.391774    0.060689   -0.678864
            45    0       4.822100      7.918850      6.866130     0.917026    1.503871    0.590585
            46    0       0.652190      0.821980      6.186150    -0.359920    0.325372    0.659947
            47    0       8.836530      1.423450      4.683020    -0.089674   -2.775953   -0.043317
            48    0       4.362370      3.169560      5.489380     1.155621    0.382013   -0.152629
            49    0       5.028300      0.131440      9.107110    -0.341897    1.771059    2.137312
            50    0       1.249940      9.377270      7.944230    -2.307549    0.851484   -0.373464
            51    0       4.016700      8.094090      9.375010    -0.867165   -0.834549   -0.117807
            52    0       1.051420      6.929540      5.926260    -0.331460    0.197649   -1.470189
            53    0       1.408220      1.634080      3.917580    -0.238646   -0.911059    0.538990
            54    0       2.564480      2.250680      1.985290    -0.555141   -0.420602   -1.509602
            55    0       3.416520      9.701230      7.596880     0.961265    0.777348   -0.860246
            56    0       4.936890      5.756160      5.336610    -1.797637   -0.601504    0.541198
            57    0       6.965540      2.400070      3.106490    -0.074561   -0.337762    0.508994
            58    0       1.685250      8.065600      3.339200    -0.590752   -0.843920    2.287714
            59    0       3.812680      2.014470      9.866420    -0.307725   -0.680450    0.632876
            60    0       3.380680      7.620260      5.193920    -0.422789   -0.955398   -1.637860
            61    0       2.589740      7.504970      7.414560     0.002293    0.337413    0.942896
            62    0       8.021490      9.318960      0.867880     1.233940    1.076213   -1.165585
            63    0       4.174660      5.949370      7.825460    -2.035015   -1.940441    0.548095
            64    0       4.095960      0.477540      1.430150    -0.993306    1.882475   -0.299679
            65    0       3.141820      5.972030     10.066070     1.392997   -0.187211   -0.734217
            66    0       6.139460      5.048770      1.378570    -0.282268   -0.393317    1.004232
            67    0       4.921890      2.775170      1.589550     1.820700    0.601917   -0.294776
            68    0       0.079340      4.943720      6.655940     0.998808   -1.694681   -1.157285
            69    0       8.792620      6.624960      6.554800    -1.952839   -0.110060    0.294194
            70    0       1.177350      0.327430      2.036930    -0.456787   -1.023880    0.107208
            71    0       2.807400      5.104990      5.900850    -0.111957    1.124662    0.680573
            72    0       7.871920      3.369570      5.076250    -1.743694    0.474038   -0.258705
            73    0       0.018180      6.189460      2.555950    -1.234248    1.447042   -0.974045
            74    0       7.825590      6.571420      9.056140     0.065459    2.227622   -1.108272
            75    0       7.249690      2.276830      7.074010    -0.735967   -1.003596    0.247466
            76    0       3.028760     10.131470      3.633020    -1.098328   -0.429287   -0.536181
            77    0       0.742980      5.481120      0.421360     0.280715    0.944213   -0.527765
            78    0      10.149770      3.288770      4.313530     0.233465    2.445862    1.953963
            79    0       5.734950      4.351050      3.526690    -0.917902    0.250010    0.749332
            80    0       6.573110      0.910560      0.976590    -0.031997    0.779653   -0.419788
            81    0       2.195250      3.827280     10.095580     0.054370   -1.663355   -0.522679
            82    0       3.080070      3.739590      7.780430     1.180136    0.720893    0.443347
            83    0       1.620330      3.166860      5.986460    -0.946858   -0.949201    0.378478
            84    0       4.679460      4.085530      9.681490    -1.066676    0.077718    0.274265
            85    0       2.955050      8.684560      1.616870     0.105826   -0.307278   -1.079804
            86    0       9.614730      5.202130      8.800010    -0.103774   -1.294071    0.225031
            87    0       2.929560      1.189900      5.777840     0.165905    0.360779   -0.457973
            88    0       2.608600      9.910730      9.854350    -0.410564    1.554810    0.419106
            89    0       6.225870      6.231230      7.277140     2.199326   -0.354142    0.628278
            90    0       5.526850      3.873650      7.375200     0.408105    0.480757    0.114086
            91    0       7.516440      0.425560      9.029080    -0.226091    0.594923   -0.395026
            92    0       4.503880      1.729610      7.440130     1.089513    0.609206   -0.226530
            93    0       4.628510      6.778950      1.633770    -0.129290    0.741364    0.626224
            94    0       8.548010      4.298710      2.744600    -0.368477   -0.340756    0.526313
            95    0       7.343120      6.384610      3.069750    -0.948323   -1.281126   -0.224186
            96    0       2.698630      3.567010      4.000090     0.538830    1.238779   -0.614028
            97    0       5.751310      0.258960      3.059670     0.658902    2.118522    0.857399
            98    0       7.109590      8.744960      3.059450     0.189393   -2.664979   -1.120384
            99    0       9.080270      1.264100      0.485520    -1.301958   -0.195989    0.759076
           100    0       2.162350      6.477180      1.784920     0.578427    0.943245    1.086826
 Energy
       -422.423883450000
 PlusStress:  xx          yy          zz          yz          xz          xy
       400.97626   446.55555   371.32530     2.17351     6.68329    -3.43521
 Feature   EFS_by	VASP
END_CFG

