<?xml version="1.0" encoding="ISO-8859-1"?>
<modeling>
 <generator>
  <i name="program" type="string">vasp </i>
  <i name="version" type="string">5.4.4.18Apr17-6-g9f103f2a35  </i>
  <i name="subversion" type="string">(build Sep 16 2020 16:20:45) complex            parallel </i>
  <i name="platform" type="string">LinuxIFC </i>
  <i name="date" type="string">2021 08 09 </i>
  <i name="time" type="string">15:42:35 </i>
 </generator>
 <incar>
  <i type="string" name="PREC">normal</i>
  <i type="string" name="ALGO"> Very Fast</i>
  <i type="int" name="ISPIN">     2</i>
  <i type="int" name="NELM">    60</i>
  <i type="int" name="NELMIN">     4</i>
  <i name="EDIFF">      0.00001000</i>
  <i type="int" name="ISYM">     0</i>
  <i type="string" name="LREAL"> auto</i>
  <i type="int" name="ISMEAR">     0</i>
  <i name="SIGMA">      0.05000000</i>
  <i type="logical" name="LWAVE"> F  </i>
  <i type="logical" name="LCHARG"> F  </i>
  <v type="int" name="KPOINT_BSE">    -1     0     0     0</v>
  <i type="int" name="NELM">    60</i>
 </incar>
 <structure name="primitive_cell" >
  <crystal>
   <varray name="basis" >
    <v>      10.21149500       0.00000000       0.00000000 </v>
    <v>       0.00000000      10.21149500       0.00000000 </v>
    <v>       0.00000000       0.00000000      10.21149500 </v>
   </varray>
   <i name="volume">   1064.79986425 </i>
   <varray name="rec_basis" >
    <v>       0.09792885       0.00000000       0.00000000 </v>
    <v>       0.00000000       0.09792885       0.00000000 </v>
    <v>       0.00000000       0.00000000       0.09792885 </v>
   </varray>
  </crystal>
  <varray name="positions" >
   <v>       0.11838500      -0.47193800       0.41773200 </v>
   <v>       0.00178000      -0.39387300       0.25030100 </v>
   <v>      -0.09971800      -0.45216600       0.44769000 </v>
   <v>       0.10296400      -0.32139800      -0.41964800 </v>
   <v>       0.10487400       0.39448300       0.23637700 </v>
   <v>       0.27492500       0.49992600      -0.42213700 </v>
   <v>       0.26427400       0.34931300       0.39172400 </v>
   <v>       0.34312300      -0.42042600       0.35391400 </v>
   <v>      -0.00604450       0.32206500       0.42241900 </v>
   <v>       0.00777000       0.48413300      -0.34819100 </v>
   <v>       0.15867700       0.31012700      -0.41375300 </v>
   <v>       0.16503500      -0.21014500       0.32700400 </v>
   <v>       0.21175600      -0.36569700       0.17479500 </v>
   <v>       0.33106600      -0.25375700      -0.49136500 </v>
   <v>      -0.16290300       0.42096800       0.26877600 </v>
   <v>      -0.12423100      -0.24019800       0.39207500 </v>
   <v>       0.32866600       0.43332100       0.17181800 </v>
   <v>      -0.13894900      -0.35122500      -0.35809600 </v>
   <v>       0.13790500       0.16002400       0.38364400 </v>
   <v>       0.07275950      -0.46324000       0.04126370 </v>
   <v>       0.48346400      -0.43630600      -0.47739200 </v>
   <v>      -0.06748900       0.26674700      -0.35649300 </v>
   <v>       0.25361000      -0.26504700      -0.27390100 </v>
   <v>       0.42720200       0.31039100      -0.46243100 </v>
   <v>      -0.05981940       0.21534300       0.24632100 </v>
   <v>      -0.06199400      -0.15967600      -0.40958700 </v>
   <v>       0.16968700      -0.45826700      -0.18488400 </v>
   <v>       0.25113700       0.22040700       0.19441700 </v>
   <v>       0.18611500      -0.09582000      -0.45330000 </v>
   <v>      -0.02525900      -0.15761800       0.20681100 </v>
   <v>      -0.22911200       0.32997800       0.49711100 </v>
   <v>       0.30162800       0.36621400      -0.23807100 </v>
   <v>      -0.28089700      -0.37476200       0.30061700 </v>
   <v>      -0.03652700       0.34770100       0.05553550 </v>
   <v>       0.01548350      -0.28468000      -0.20509200 </v>
   <v>      -0.15744100      -0.45623400       0.08147050 </v>
   <v>      -0.30731400      -0.46869200      -0.48733400 </v>
   <v>       0.01467320      -0.04531400       0.40465800 </v>
   <v>       0.45326500      -0.33614500       0.15999300 </v>
   <v>       0.28938500      -0.14953100       0.15833800 </v>
   <v>      -0.22405400       0.44974200      -0.29604600 </v>
   <v>       0.40882000      -0.41738500      -0.23366200 </v>
   <v>       0.41209700       0.18181400       0.34749100 </v>
   <v>      -0.43838300       0.42609300       0.34536500 </v>
   <v>      -0.13464900       0.13939700       0.45860300 </v>
   <v>       0.21497800       0.37480100      -0.01135100 </v>
   <v>       0.06816650       0.29733800      -0.17916500 </v>
   <v>       0.28688800       0.11652600      -0.43418300 </v>
   <v>      -0.04851900      -0.26771700       0.02411330 </v>
   <v>       0.30767500      -0.41516600      -0.01424100 </v>
   <v>       0.46543400      -0.16120200       0.31791800 </v>
   <v>      -0.05844100      -0.49056100      -0.13822500 </v>
   <v>       0.06386860       0.08049530      -0.39419700 </v>
   <v>       0.29660300      -0.00783700       0.35577700 </v>
   <v>       0.47222300      -0.22451600      -0.32760800 </v>
   <v>       0.48199500       0.27176900       0.15566300 </v>
   <v>       0.16545300      -0.23946800      -0.04347200 </v>
   <v>       0.12240500      -0.08169500      -0.22203100 </v>
   <v>      -0.31787300       0.23503600       0.30421500 </v>
   <v>       0.44045500      -0.05187700      -0.47942800 </v>
   <v>       0.22947000       0.16172200      -0.19924700 </v>
   <v>      -0.45876200       0.37934200      -0.27775500 </v>
   <v>       0.11529700       0.03206440       0.19947400 </v>
   <v>      -0.38598000      -0.25093800       0.47965400 </v>
   <v>      -0.30376600      -0.14361600       0.29960800 </v>
   <v>       0.11349500       0.15693400       0.01295700 </v>
   <v>      -0.27434700       0.31036800       0.09858280 </v>
   <v>      -0.28905800      -0.18617000      -0.32531400 </v>
   <v>      -0.39877000       0.49442000       0.13500200 </v>
   <v>      -0.31242900      -0.27157700       0.10256100 </v>
   <v>       0.44106000       0.16937900      -0.27139700 </v>
   <v>       0.33457600      -0.04997000      -0.25604600 </v>
   <v>      -0.39030800      -0.38978300      -0.28735800 </v>
   <v>      -0.29004600       0.22296700      -0.30725000 </v>
   <v>      -0.14224800       0.27504600      -0.12763000 </v>
   <v>       0.01435250      -0.06288800       0.00065627 </v>
   <v>       0.45825400       0.40009100      -0.05190300 </v>
   <v>      -0.11078000       0.12379200       0.04754630 </v>
   <v>      -0.29087500      -0.04951400      -0.49488800 </v>
   <v>      -0.23364900      -0.35646800      -0.11314300 </v>
   <v>      -0.14018000      -0.14016600      -0.15369400 </v>
   <v>      -0.19974200       0.03757640       0.27025300 </v>
   <v>      -0.21446500      -0.08740500       0.08499070 </v>
   <v>      -0.41787900       0.13743000      -0.48969100 </v>
   <v>       0.37337100       0.19727500      -0.03379300 </v>
   <v>      -0.15544300       0.02502820      -0.33449900 </v>
   <v>      -0.03078000       0.08912460      -0.16696700 </v>
   <v>       0.40111300       0.04676510       0.14005300 </v>
   <v>       0.39335100      -0.20735500      -0.08191600 </v>
   <v>      -0.46991500      -0.11463700       0.08520360 </v>
   <v>      -0.45479200      -0.39814900      -0.05175900 </v>
   <v>       0.25545700      -0.02945400      -0.03497500 </v>
   <v>      -0.30812500       0.44043300      -0.08519900 </v>
   <v>      -0.43678100       0.02536000       0.29963000 </v>
   <v>      -0.41162000      -0.00128000      -0.30352200 </v>
   <v>      -0.35630300       0.08917020       0.09563600 </v>
   <v>      -0.39059000      -0.17087700      -0.11439300 </v>
   <v>      -0.38771000       0.22684300      -0.08419200 </v>
   <v>       0.49241600       0.01287140      -0.10815100 </v>
   <v>      -0.26392400       0.04167430      -0.11579300 </v>
  </varray>
 </structure>
 <varray name="primitive_index" >
  <v type="int" >        1 </v>
  <v type="int" >       73 </v>
  <v type="int" >       10 </v>
  <v type="int" >       52 </v>
  <v type="int" >       32 </v>
  <v type="int" >       71 </v>
  <v type="int" >       96 </v>
  <v type="int" >       44 </v>
  <v type="int" >       78 </v>
  <v type="int" >       68 </v>
  <v type="int" >       83 </v>
  <v type="int" >       58 </v>
  <v type="int" >      100 </v>
  <v type="int" >       60 </v>
  <v type="int" >       94 </v>
  <v type="int" >       13 </v>
  <v type="int" >       12 </v>
  <v type="int" >       69 </v>
  <v type="int" >       53 </v>
  <v type="int" >       77 </v>
  <v type="int" >       56 </v>
  <v type="int" >       28 </v>
  <v type="int" >       61 </v>
  <v type="int" >       48 </v>
  <v type="int" >       11 </v>
  <v type="int" >       22 </v>
  <v type="int" >        3 </v>
  <v type="int" >       54 </v>
  <v type="int" >       17 </v>
  <v type="int" >       27 </v>
  <v type="int" >       72 </v>
  <v type="int" >       82 </v>
  <v type="int" >       95 </v>
  <v type="int" >       38 </v>
  <v type="int" >        6 </v>
  <v type="int" >       40 </v>
  <v type="int" >        4 </v>
  <v type="int" >       18 </v>
  <v type="int" >       93 </v>
  <v type="int" >       85 </v>
  <v type="int" >       21 </v>
  <v type="int" >       63 </v>
  <v type="int" >       23 </v>
  <v type="int" >       79 </v>
  <v type="int" >       47 </v>
  <v type="int" >       81 </v>
  <v type="int" >       16 </v>
  <v type="int" >       87 </v>
  <v type="int" >       39 </v>
  <v type="int" >       65 </v>
  <v type="int" >       43 </v>
  <v type="int" >       86 </v>
  <v type="int" >       46 </v>
  <v type="int" >       76 </v>
  <v type="int" >       45 </v>
  <v type="int" >       67 </v>
  <v type="int" >       34 </v>
  <v type="int" >       50 </v>
  <v type="int" >       57 </v>
  <v type="int" >       36 </v>
  <v type="int" >       37 </v>
  <v type="int" >       90 </v>
  <v type="int" >       70 </v>
  <v type="int" >       30 </v>
  <v type="int" >       98 </v>
  <v type="int" >       35 </v>
  <v type="int" >       33 </v>
  <v type="int" >       20 </v>
  <v type="int" >       66 </v>
  <v type="int" >        9 </v>
  <v type="int" >       92 </v>
  <v type="int" >       55 </v>
  <v type="int" >       89 </v>
  <v type="int" >       75 </v>
  <v type="int" >       29 </v>
  <v type="int" >       31 </v>
  <v type="int" >       84 </v>
  <v type="int" >       99 </v>
  <v type="int" >       19 </v>
  <v type="int" >       74 </v>
  <v type="int" >       24 </v>
  <v type="int" >       25 </v>
  <v type="int" >       62 </v>
  <v type="int" >        2 </v>
  <v type="int" >       59 </v>
  <v type="int" >       15 </v>
  <v type="int" >       41 </v>
  <v type="int" >       64 </v>
  <v type="int" >       51 </v>
  <v type="int" >       14 </v>
  <v type="int" >        7 </v>
  <v type="int" >       88 </v>
  <v type="int" >        8 </v>
  <v type="int" >       97 </v>
  <v type="int" >       42 </v>
  <v type="int" >       80 </v>
  <v type="int" >        5 </v>
  <v type="int" >       26 </v>
  <v type="int" >       49 </v>
  <v type="int" >       91 </v>
 </varray>
 <kpoints>
  <generation param="Gamma">
   <v type="int" name="divisions">       1        1        1 </v>
   <v name="usershift">      0.00000000       0.00000000       0.00000000 </v>
   <v name="genvec1">      1.00000000       0.00000000       0.00000000 </v>
   <v name="genvec2">      0.00000000       1.00000000       0.00000000 </v>
   <v name="genvec3">      0.00000000       0.00000000       1.00000000 </v>
   <v name="shift">      0.00000000       0.00000000       0.00000000 </v>
  </generation>
  <varray name="kpointlist" >
   <v>       0.00000000       0.00000000       0.00000000 </v>
  </varray>
  <varray name="weights" >
   <v>       1.00000000 </v>
  </varray>
 </kpoints>
 <parameters>
  <separator name="general" >
   <i type="string" name="SYSTEM">unknown system</i>
   <i type="logical" name="LCOMPAT"> F  </i>
  </separator>
  <separator name="electronic" >
   <i type="string" name="PREC">normal</i>
   <i name="ENMAX">    245.34500000</i>
   <i name="ENAUG">    322.06900000</i>
   <i name="EDIFF">      0.00001000</i>
   <i type="int" name="IALGO">    48</i>
   <i type="int" name="IWAVPR">    10</i>
   <i type="int" name="NBANDS">   304</i>
   <i name="NELECT">    400.00000000</i>
   <i type="int" name="TURBO">     0</i>
   <i type="int" name="IRESTART">     0</i>
   <i type="int" name="NREBOOT">     0</i>
   <i type="int" name="NMIN">     0</i>
   <i name="EREF">      0.00000000</i>
   <separator name="electronic smearing" >
    <i type="int" name="ISMEAR">     0</i>
    <i name="SIGMA">      0.05000000</i>
    <i name="KSPACING">      0.50000000</i>
    <i type="logical" name="KGAMMA"> T  </i>
   </separator>
   <separator name="electronic projectors" >
    <i type="logical" name="LREAL"> T  </i>
    <v name="ROPT">     -0.00050000</v>
    <i type="int" name="LMAXPAW">  -100</i>
    <i type="int" name="LMAXMIX">     2</i>
    <i type="logical" name="NLSPLINE"> F  </i>
   </separator>
   <separator name="electronic startup" >
    <i type="int" name="ISTART">     0</i>
    <i type="int" name="ICHARG">     2</i>
    <i type="int" name="INIWAV">     1</i>
   </separator>
   <separator name="electronic spin" >
    <i type="int" name="ISPIN">     2</i>
    <i type="logical" name="LNONCOLLINEAR"> F  </i>
    <v name="MAGMOM">      1.00000000      1.00000000      1.00000000      1.00000000      1.00000000      1.00000000      1.00000000      1.00000000      1.00000000      1.00000000      1.00000000      1.00000000      1.00000000      1.00000000      1.00000000      1.00000000      1.00000000      1.00000000      1.00000000      1.00000000
      1.00000000      1.00000000      1.00000000      1.00000000      1.00000000      1.00000000      1.00000000      1.00000000      1.00000000      1.00000000      1.00000000      1.00000000      1.00000000      1.00000000      1.00000000      1.00000000      1.00000000      1.00000000      1.00000000      1.00000000
      1.00000000      1.00000000      1.00000000      1.00000000      1.00000000      1.00000000      1.00000000      1.00000000      1.00000000      1.00000000      1.00000000      1.00000000      1.00000000      1.00000000      1.00000000      1.00000000      1.00000000      1.00000000      1.00000000      1.00000000
      1.00000000      1.00000000      1.00000000      1.00000000      1.00000000      1.00000000      1.00000000      1.00000000      1.00000000      1.00000000      1.00000000      1.00000000      1.00000000      1.00000000      1.00000000      1.00000000      1.00000000      1.00000000      1.00000000      1.00000000
      1.00000000      1.00000000      1.00000000      1.00000000      1.00000000      1.00000000      1.00000000      1.00000000      1.00000000      1.00000000      1.00000000      1.00000000      1.00000000      1.00000000      1.00000000      1.00000000      1.00000000      1.00000000      1.00000000      1.00000000
</v>
    <i name="NUPDOWN">     -1.00000000</i>
    <i type="logical" name="LSORBIT"> F  </i>
    <v name="SAXIS">      0.00000000      0.00000000      1.00000000</v>
    <i type="logical" name="LSPIRAL"> F  </i>
    <v name="QSPIRAL">      0.00000000      0.00000000      0.00000000</v>
    <i type="logical" name="LZEROZ"> F  </i>
   </separator>
   <separator name="electronic exchange-correlation" >
    <i type="logical" name="LASPH"> F  </i>
    <i type="logical" name="LMETAGGA"> F  </i>
   </separator>
   <separator name="electronic convergence" >
    <i type="int" name="NELM">    60</i>
    <i type="int" name="NELMDL">   -12</i>
    <i type="int" name="NELMIN">     4</i>
    <i name="ENINI">    245.34500000</i>
    <separator name="electronic convergence detail" >
     <i type="logical" name="LDIAG"> T  </i>
     <i type="logical" name="LSUBROT"> F  </i>
     <i name="WEIMIN">      0.00000000</i>
     <i name="EBREAK">      0.00000001</i>
     <i name="DEPER">      0.30000000</i>
     <i type="int" name="NRMM">     4</i>
     <i name="TIME">      0.40000000</i>
    </separator>
   </separator>
   <separator name="electronic mixer" >
    <i name="AMIX">      0.40000000</i>
    <i name="BMIX">      1.00000000</i>
    <i name="AMIN">      0.10000000</i>
    <i name="AMIX_MAG">      1.60000000</i>
    <i name="BMIX_MAG">      1.00000000</i>
    <separator name="electronic mixer details" >
     <i type="int" name="IMIX">     4</i>
     <i type="logical" name="MIXFIRST"> F  </i>
     <i type="int" name="MAXMIX">   -45</i>
     <i name="WC">    100.00000000</i>
     <i type="int" name="INIMIX">     1</i>
     <i type="int" name="MIXPRE">     1</i>
     <i type="int" name="MREMOVE">     5</i>
    </separator>
   </separator>
   <separator name="electronic dipolcorrection" >
    <i type="logical" name="LDIPOL"> F  </i>
    <i type="logical" name="LMONO"> F  </i>
    <i type="int" name="IDIPOL">     0</i>
    <i name="EPSILON">      1.00000000</i>
    <v name="DIPOL">   -100.00000000   -100.00000000   -100.00000000</v>
    <i name="EFIELD">      0.00000000</i>
   </separator>
  </separator>
  <separator name="grids" >
   <i type="int" name="NGX">    40</i>
   <i type="int" name="NGY">    40</i>
   <i type="int" name="NGZ">    40</i>
   <i type="int" name="NGXF">    80</i>
   <i type="int" name="NGYF">    80</i>
   <i type="int" name="NGZF">    80</i>
   <i type="logical" name="ADDGRID"> F  </i>
  </separator>
  <separator name="ionic" >
   <i type="int" name="NSW">     0</i>
   <i type="int" name="IBRION">    -1</i>
   <i type="int" name="MDALGO">     0</i>
   <i type="int" name="ISIF">     2</i>
   <i name="PSTRESS">      0.00000000</i>
   <i name="EDIFFG">      0.00010000</i>
   <i type="int" name="NFREE">     0</i>
   <i name="POTIM">      0.50000000</i>
   <i name="SMASS">     -3.00000000</i>
   <i name="SCALEE">      1.00000000</i>
  </separator>
  <separator name="ionic md" >
   <i name="TEBEG">      0.00010000</i>
   <i name="TEEND">      0.00010000</i>
   <i type="int" name="NBLOCK">     1</i>
   <i type="int" name="KBLOCK">     1</i>
   <i type="int" name="NPACO">   256</i>
   <i name="APACO">     16.00000000</i>
  </separator>
  <separator name="symmetry" >
   <i type="int" name="ISYM">     0</i>
   <i name="SYMPREC">      0.00001000</i>
  </separator>
  <separator name="dos" >
   <i type="int" name="LORBIT">     0</i>
   <v name="RWIGS">     -1.00000000</v>
   <i type="int" name="NEDOS">   301</i>
   <i name="EMIN">     10.00000000</i>
   <i name="EMAX">    -10.00000000</i>
   <i name="EFERMI">      0.00000000</i>
  </separator>
  <separator name="writing" >
   <i type="int" name="NWRITE">     2</i>
   <i type="logical" name="LWAVE"> F  </i>
   <i type="logical" name="LDOWNSAMPLE"> F  </i>
   <i type="logical" name="LCHARG"> F  </i>
   <i type="logical" name="LPARD"> F  </i>
   <i type="logical" name="LVTOT"> F  </i>
   <i type="logical" name="LVHAR"> F  </i>
   <i type="logical" name="LELF"> F  </i>
   <i type="logical" name="LOPTICS"> F  </i>
   <v name="STM">      0.00000000      0.00000000      0.00000000      0.00000000      0.00000000      0.00000000      0.00000000</v>
  </separator>
  <separator name="performance" >
   <i type="int" name="NPAR">    16</i>
   <i type="int" name="NSIM">     4</i>
   <i type="int" name="NBLK">    -1</i>
   <i type="logical" name="LPLANE"> T  </i>
   <i type="logical" name="LSCALAPACK"> T  </i>
   <i type="logical" name="LSCAAWARE"> F  </i>
   <i type="logical" name="LSCALU"> F  </i>
   <i type="logical" name="LASYNC"> F  </i>
   <i type="logical" name="LORBITALREAL"> F  </i>
  </separator>
  <separator name="miscellaneous" >
   <i type="int" name="IDIOT">     3</i>
   <i type="int" name="ISPECIAL">     0</i>
   <i type="logical" name="LMUSIC"> F  </i>
   <v name="POMASS">     28.08500000</v>
   <v name="DARWINR">      0.00000000</v>
   <v name="DARWINV">      1.00000000</v>
   <i type="logical" name="LCORR"> T  </i>
  </separator>
  <i type="logical" name="GGA_COMPAT"> T  </i>
  <i type="logical" name="LBERRY"> F  </i>
  <i type="int" name="ICORELEVEL">     0</i>
  <i type="logical" name="LDAU"> F  </i>
  <i type="int" name="I_CONSTRAINED_M">     0</i>
  <separator name="electronic exchange-correlation" >
   <i type="string" name="GGA">--</i>
   <i type="int" name="VOSKOWN">     0</i>
   <i type="logical" name="LHFCALC"> F  </i>
   <i type="string" name="PRECFOCK"></i>
   <i type="logical" name="LSYMGRAD"> F  </i>
   <i type="logical" name="LHFONE"> F  </i>
   <i type="logical" name="LRHFCALC"> F  </i>
   <i type="logical" name="LTHOMAS"> F  </i>
   <i type="logical" name="LMODELHF"> F  </i>
   <i name="ENCUT4O">     -1.00000000</i>
   <i type="int" name="EXXOEP">     0</i>
   <i type="int" name="FOURORBIT">     0</i>
   <i name="AEXX">      0.00000000</i>
   <i name="HFALPHA">      0.00000000</i>
   <i name="MCALPHA">      0.00000000</i>
   <i name="ALDAX">      1.00000000</i>
   <i name="AGGAX">      1.00000000</i>
   <i name="ALDAC">      1.00000000</i>
   <i name="AGGAC">      1.00000000</i>
   <i type="int" name="NKREDX">     1</i>
   <i type="int" name="NKREDY">     1</i>
   <i type="int" name="NKREDZ">     1</i>
   <i type="logical" name="SHIFTRED"> F  </i>
   <i type="logical" name="ODDONLY"> F  </i>
   <i type="logical" name="EVENONLY"> F  </i>
   <i type="int" name="LMAXFOCK">     0</i>
   <i type="int" name="NMAXFOCKAE">     0</i>
   <i type="logical" name="LFOCKAEDFT"> F  </i>
   <i name="HFSCREEN">      0.00000000</i>
   <i name="HFSCREENC">      0.00000000</i>
   <i type="int" name="NBANDSGWLOW">     0</i>
  </separator>
  <separator name="vdW DFT" >
   <i type="logical" name="LUSE_VDW"> F  </i>
   <i name="Zab_VDW">     -0.84910000</i>
   <i name="PARAM1">      0.12340000</i>
   <i name="PARAM2">      1.00000000</i>
   <i name="PARAM3">      0.00000000</i>
  </separator>
  <separator name="model GW" >
   <i type="int" name="MODEL_GW">     0</i>
   <i name="MODEL_EPS0">      6.38879919</i>
   <i name="MODEL_ALPHA">      1.00000000</i>
  </separator>
  <separator name="linear response parameters" >
   <i type="logical" name="LEPSILON"> F  </i>
   <i type="logical" name="LRPA"> F  </i>
   <i type="logical" name="LNABLA"> F  </i>
   <i type="logical" name="LVEL"> F  </i>
   <i type="int" name="KINTER">     0</i>
   <i name="CSHIFT">      0.10000000</i>
   <i name="OMEGAMAX">     -1.00000000</i>
   <i name="DEG_THRESHOLD">      0.00200000</i>
   <i name="RTIME">     -0.10000000</i>
   <i name="WPLASMAI">      0.00000000</i>
   <v name="DFIELD">      0.00000000      0.00000000      0.00000000</v>
   <v name="WPLASMA">      0.00000000      0.00000000      0.00000000      0.00000000      0.00000000      0.00000000      0.00000000      0.00000000      0.00000000</v>
  </separator>
  <separator name="orbital magnetization" >
   <i type="logical" name="NUCIND"> F  </i>
   <v name="MAGPOS">      0.00000000      0.00000000      0.00000000</v>
   <i type="logical" name="LNICSALL"> T  </i>
   <i type="logical" name="ORBITALMAG"> F  </i>
   <i type="logical" name="LMAGBLOCH"> F  </i>
   <i type="logical" name="LCHIMAG"> F  </i>
   <i type="logical" name="LGAUGE"> T  </i>
   <i type="int" name="MAGATOM">     0</i>
   <v name="MAGDIPOL">      0.00000000      0.00000000      0.00000000</v>
   <v name="AVECCONST">      0.00000000      0.00000000      0.00000000</v>
  </separator>
  <separator name="response functions" >
   <i type="logical" name="LADDER"> F  </i>
   <i type="logical" name="LRPAFORCE"> F  </i>
   <i type="logical" name="LFXC"> F  </i>
   <i type="logical" name="LHARTREE"> T  </i>
   <i type="int" name="IBSE">     0</i>
   <v type="int" name="KPOINT">    -1     0     0     0</v>
   <i type="logical" name="LTCTE"> F  </i>
   <i type="logical" name="LTETE"> F  </i>
   <i type="logical" name="LTRIPLET"> F  </i>
   <i type="logical" name="LFXCEPS"> F  </i>
   <i type="logical" name="LFXHEG"> F  </i>
   <i type="int" name="NATURALO">     2</i>
   <i type="logical" name="L2ORDER"> F  </i>
   <i type="logical" name="LMP2LT"> F  </i>
   <i type="logical" name="LUSEW"> F  </i>
   <i name="ENCUTGW">     -2.00000000</i>
   <i name="ENCUTGWSOFT">     -2.00000000</i>
   <i name="ENCUTLF">     -1.00000000</i>
   <i type="int" name="LMAXMP2">    -1</i>
   <i name="SCISSOR">      0.00000000</i>
   <i type="int" name="NOMEGA">     0</i>
   <i type="int" name="NOMEGAR">     0</i>
   <i type="int" name="NBANDSGW">    -1</i>
   <i type="int" name="NBANDSO">    -1</i>
   <i type="int" name="NBANDSV">    -1</i>
   <i type="int" name="NELM">    60</i>
   <i type="int" name="NELMHF">     1</i>
   <i type="int" name="DIM">     3</i>
   <i type="int" name="ANTIRES">     0</i>
   <i name="OMEGAMAX">    -30.00000000</i>
   <i name="OMEGAMIN">    -30.00000000</i>
   <i name="OMEGATL">   -200.00000000</i>
   <i type="int" name="OMEGAGRID">   140</i>
   <i name="CSHIFT">     -0.10000000</i>
   <i type="logical" name="SELFENERGY"> F  </i>
   <i type="logical" name="LSPECTRAL"> F  </i>
   <i type="logical" name="LSPECTRALGW"> F  </i>
   <i type="logical" name="LSINGLES"> F  </i>
   <i type="logical" name="LFERMIGW"> F  </i>
   <i type="logical" name="ODDONLYGW"> F  </i>
   <i type="logical" name="EVENONLYGW"> F  </i>
   <i type="int" name="NKREDLFX">     1</i>
   <i type="int" name="NKREDLFY">     1</i>
   <i type="int" name="NKREDLFZ">     1</i>
   <i type="int" name="MAXMEM">  2800</i>
   <i type="int" name="TELESCOPE">     0</i>
   <i type="int" name="TAUPAR">     1</i>
   <i type="int" name="OMEGAPAR">    -1</i>
   <i name="LAMBDA">      1.00000000</i>
  </separator>
  <separator name="External order field" >
   <i name="OFIELD_KAPPA">      0.00000000</i>
   <v name="OFIELD_K">      0.00000000      0.00000000      0.00000000</v>
   <i name="OFIELD_Q6_NEAR">      0.00000000</i>
   <i name="OFIELD_Q6_FAR">      0.00000000</i>
   <i name="OFIELD_A">      0.00000000</i>
  </separator>
 </parameters>
 <atominfo>
  <atoms>     100 </atoms>
  <types>       1 </types>
  <array name="atoms" >
   <dimension dim="1">ion</dimension>
   <field type="string">element</field>
   <field type="int">atomtype</field>
   <set>
    <rc><c>Si</c><c>   1</c></rc>
    <rc><c>Si</c><c>   1</c></rc>
    <rc><c>Si</c><c>   1</c></rc>
    <rc><c>Si</c><c>   1</c></rc>
    <rc><c>Si</c><c>   1</c></rc>
    <rc><c>Si</c><c>   1</c></rc>
    <rc><c>Si</c><c>   1</c></rc>
    <rc><c>Si</c><c>   1</c></rc>
    <rc><c>Si</c><c>   1</c></rc>
    <rc><c>Si</c><c>   1</c></rc>
    <rc><c>Si</c><c>   1</c></rc>
    <rc><c>Si</c><c>   1</c></rc>
    <rc><c>Si</c><c>   1</c></rc>
    <rc><c>Si</c><c>   1</c></rc>
    <rc><c>Si</c><c>   1</c></rc>
    <rc><c>Si</c><c>   1</c></rc>
    <rc><c>Si</c><c>   1</c></rc>
    <rc><c>Si</c><c>   1</c></rc>
    <rc><c>Si</c><c>   1</c></rc>
    <rc><c>Si</c><c>   1</c></rc>
    <rc><c>Si</c><c>   1</c></rc>
    <rc><c>Si</c><c>   1</c></rc>
    <rc><c>Si</c><c>   1</c></rc>
    <rc><c>Si</c><c>   1</c></rc>
    <rc><c>Si</c><c>   1</c></rc>
    <rc><c>Si</c><c>   1</c></rc>
    <rc><c>Si</c><c>   1</c></rc>
    <rc><c>Si</c><c>   1</c></rc>
    <rc><c>Si</c><c>   1</c></rc>
    <rc><c>Si</c><c>   1</c></rc>
    <rc><c>Si</c><c>   1</c></rc>
    <rc><c>Si</c><c>   1</c></rc>
    <rc><c>Si</c><c>   1</c></rc>
    <rc><c>Si</c><c>   1</c></rc>
    <rc><c>Si</c><c>   1</c></rc>
    <rc><c>Si</c><c>   1</c></rc>
    <rc><c>Si</c><c>   1</c></rc>
    <rc><c>Si</c><c>   1</c></rc>
    <rc><c>Si</c><c>   1</c></rc>
    <rc><c>Si</c><c>   1</c></rc>
    <rc><c>Si</c><c>   1</c></rc>
    <rc><c>Si</c><c>   1</c></rc>
    <rc><c>Si</c><c>   1</c></rc>
    <rc><c>Si</c><c>   1</c></rc>
    <rc><c>Si</c><c>   1</c></rc>
    <rc><c>Si</c><c>   1</c></rc>
    <rc><c>Si</c><c>   1</c></rc>
    <rc><c>Si</c><c>   1</c></rc>
    <rc><c>Si</c><c>   1</c></rc>
    <rc><c>Si</c><c>   1</c></rc>
    <rc><c>Si</c><c>   1</c></rc>
    <rc><c>Si</c><c>   1</c></rc>
    <rc><c>Si</c><c>   1</c></rc>
    <rc><c>Si</c><c>   1</c></rc>
    <rc><c>Si</c><c>   1</c></rc>
    <rc><c>Si</c><c>   1</c></rc>
    <rc><c>Si</c><c>   1</c></rc>
    <rc><c>Si</c><c>   1</c></rc>
    <rc><c>Si</c><c>   1</c></rc>
    <rc><c>Si</c><c>   1</c></rc>
    <rc><c>Si</c><c>   1</c></rc>
    <rc><c>Si</c><c>   1</c></rc>
    <rc><c>Si</c><c>   1</c></rc>
    <rc><c>Si</c><c>   1</c></rc>
    <rc><c>Si</c><c>   1</c></rc>
    <rc><c>Si</c><c>   1</c></rc>
    <rc><c>Si</c><c>   1</c></rc>
    <rc><c>Si</c><c>   1</c></rc>
    <rc><c>Si</c><c>   1</c></rc>
    <rc><c>Si</c><c>   1</c></rc>
    <rc><c>Si</c><c>   1</c></rc>
    <rc><c>Si</c><c>   1</c></rc>
    <rc><c>Si</c><c>   1</c></rc>
    <rc><c>Si</c><c>   1</c></rc>
    <rc><c>Si</c><c>   1</c></rc>
    <rc><c>Si</c><c>   1</c></rc>
    <rc><c>Si</c><c>   1</c></rc>
    <rc><c>Si</c><c>   1</c></rc>
    <rc><c>Si</c><c>   1</c></rc>
    <rc><c>Si</c><c>   1</c></rc>
    <rc><c>Si</c><c>   1</c></rc>
    <rc><c>Si</c><c>   1</c></rc>
    <rc><c>Si</c><c>   1</c></rc>
    <rc><c>Si</c><c>   1</c></rc>
    <rc><c>Si</c><c>   1</c></rc>
    <rc><c>Si</c><c>   1</c></rc>
    <rc><c>Si</c><c>   1</c></rc>
    <rc><c>Si</c><c>   1</c></rc>
    <rc><c>Si</c><c>   1</c></rc>
    <rc><c>Si</c><c>   1</c></rc>
    <rc><c>Si</c><c>   1</c></rc>
    <rc><c>Si</c><c>   1</c></rc>
    <rc><c>Si</c><c>   1</c></rc>
    <rc><c>Si</c><c>   1</c></rc>
    <rc><c>Si</c><c>   1</c></rc>
    <rc><c>Si</c><c>   1</c></rc>
    <rc><c>Si</c><c>   1</c></rc>
    <rc><c>Si</c><c>   1</c></rc>
    <rc><c>Si</c><c>   1</c></rc>
    <rc><c>Si</c><c>   1</c></rc>
   </set>
  </array>
  <array name="atomtypes" >
   <dimension dim="1">type</dimension>
   <field type="int">atomspertype</field>
   <field type="string">element</field>
   <field>mass</field>
   <field>valence</field>
   <field type="string">pseudopotential</field>
   <set>
    <rc><c> 100</c><c>Si</c><c>     28.08500000</c><c>      4.00000000</c><c>  PAW_PBE Si 05Jan2001                  </c></rc>
   </set>
  </array>
 </atominfo>
 <structure name="initialpos" >
  <crystal>
   <varray name="basis" >
    <v>      10.21149500       0.00000000       0.00000000 </v>
    <v>       0.00000000      10.21149500       0.00000000 </v>
    <v>       0.00000000       0.00000000      10.21149500 </v>
   </varray>
   <i name="volume">   1064.79986425 </i>
   <varray name="rec_basis" >
    <v>       0.09792885       0.00000000       0.00000000 </v>
    <v>       0.00000000       0.09792885       0.00000000 </v>
    <v>       0.00000000       0.00000000       0.09792885 </v>
   </varray>
  </crystal>
  <varray name="positions" >
   <v>       0.11838500       0.52806200       0.41773200 </v>
   <v>       0.58212100       0.13743000       0.51030900 </v>
   <v>       0.16968700       0.54173300       0.81511600 </v>
   <v>       0.69268600       0.53130800       0.51266600 </v>
   <v>       0.60941000       0.82912300       0.88560700 </v>
   <v>       0.01548350       0.71532000       0.79490800 </v>
   <v>       0.54520800       0.60185100       0.94824100 </v>
   <v>       0.69187500       0.44043300       0.91480100 </v>
   <v>       0.68757100       0.72842300       0.10256100 </v>
   <v>       0.90028200       0.54783400       0.44769000 </v>
   <v>       0.94018060       0.21534300       0.24632100 </v>
   <v>       0.32866600       0.43332100       0.17181800 </v>
   <v>       0.87576900       0.75980200       0.39207500 </v>
   <v>       0.53008500       0.88536300       0.08520360 </v>
   <v>       0.84455700       0.02502820       0.66550100 </v>
   <v>       0.06816650       0.29733800       0.82083500 </v>
   <v>       0.18611500       0.90418000       0.54670000 </v>
   <v>       0.01467320       0.95468600       0.40465800 </v>
   <v>       0.70912500       0.95048600       0.50511200 </v>
   <v>       0.71094200       0.81383000       0.67468600 </v>
   <v>       0.77594600       0.44974200       0.70395400 </v>
   <v>       0.93800600       0.84032400       0.59041300 </v>
   <v>       0.41209700       0.18181400       0.34749100 </v>
   <v>       0.85982000       0.85983400       0.84630600 </v>
   <v>       0.80025800       0.03757640       0.27025300 </v>
   <v>       0.61229000       0.22684300       0.91580800 </v>
   <v>       0.97474100       0.84238200       0.20681100 </v>
   <v>       0.93251100       0.26674700       0.64350700 </v>
   <v>       0.85775200       0.27504600       0.87237000 </v>
   <v>       0.61402000       0.74906200       0.47965400 </v>
   <v>       0.01435250       0.93711200       0.00065627 </v>
   <v>       0.10487400       0.39448300       0.23637700 </v>
   <v>       0.72565300       0.31036800       0.09858280 </v>
   <v>       0.16545300       0.76053200       0.95652800 </v>
   <v>       0.11349500       0.15693400       0.01295700 </v>
   <v>       0.44045500       0.94812300       0.52057200 </v>
   <v>       0.22947000       0.16172200       0.80075300 </v>
   <v>       0.96347300       0.34770100       0.05553550 </v>
   <v>       0.95148100       0.73228300       0.02411330 </v>
   <v>       0.84255900       0.54376600       0.08147050 </v>
   <v>       0.96922000       0.08912460       0.83303300 </v>
   <v>       0.58838000       0.99872000       0.69647800 </v>
   <v>       0.46543400       0.83879800       0.31791800 </v>
   <v>       0.34312300       0.57957400       0.35391400 </v>
   <v>       0.47222300       0.77548400       0.67239200 </v>
   <v>       0.06386860       0.08049530       0.60580300 </v>
   <v>       0.86535100       0.13939700       0.45860300 </v>
   <v>       0.42720200       0.31039100       0.53756900 </v>
   <v>       0.49241600       0.01287140       0.89184900 </v>
   <v>       0.12240500       0.91830500       0.77796900 </v>
   <v>       0.39335100       0.79264500       0.91808400 </v>
   <v>       0.10296400       0.67860200       0.58035200 </v>
   <v>       0.13790500       0.16002400       0.38364400 </v>
   <v>       0.25113700       0.22040700       0.19441700 </v>
   <v>       0.33457600       0.95003000       0.74395400 </v>
   <v>       0.48346400       0.56369400       0.52260800 </v>
   <v>       0.68212700       0.23503600       0.30421500 </v>
   <v>       0.16503500       0.78985500       0.32700400 </v>
   <v>       0.37337100       0.19727500       0.96620700 </v>
   <v>       0.33106600       0.74624300       0.50863500 </v>
   <v>       0.25361000       0.73495300       0.72609900 </v>
   <v>       0.78553500       0.91259500       0.08499070 </v>
   <v>       0.40882000       0.58261500       0.76633800 </v>
   <v>       0.40111300       0.04676510       0.14005300 </v>
   <v>       0.30767500       0.58483400       0.98575900 </v>
   <v>       0.60123000       0.49442000       0.13500200 </v>
   <v>       0.48199500       0.27176900       0.15566300 </v>
   <v>       0.00777000       0.48413300       0.65180900 </v>
   <v>       0.86105100       0.64877500       0.64190400 </v>
   <v>       0.11529700       0.03206440       0.19947400 </v>
   <v>       0.27492500       0.49992600       0.57786300 </v>
   <v>       0.77088800       0.32997800       0.49711100 </v>
   <v>       0.00178000       0.60612700       0.25030100 </v>
   <v>       0.76635100       0.64353200       0.88685700 </v>
   <v>       0.70995400       0.22296700       0.69275000 </v>
   <v>       0.29660300       0.99216300       0.35577700 </v>
   <v>       0.07275950       0.53676000       0.04126370 </v>
   <v>       0.99395550       0.32206500       0.42241900 </v>
   <v>       0.56161700       0.42609300       0.34536500 </v>
   <v>       0.64369700       0.08917020       0.09563600 </v>
   <v>       0.21497800       0.37480100       0.98864900 </v>
   <v>       0.30162800       0.36621400       0.76192900 </v>
   <v>       0.15867700       0.31012700       0.58624700 </v>
   <v>       0.45825400       0.40009100       0.94809700 </v>
   <v>       0.28938500       0.85046900       0.15833800 </v>
   <v>       0.94155900       0.50943900       0.86177500 </v>
   <v>       0.28688800       0.11652600       0.56581700 </v>
   <v>       0.25545700       0.97054600       0.96502500 </v>
   <v>       0.60969200       0.61021700       0.71264200 </v>
   <v>       0.54123800       0.37934200       0.72224500 </v>
   <v>       0.73607600       0.04167430       0.88420700 </v>
   <v>       0.44106000       0.16937900       0.72860300 </v>
   <v>       0.45326500       0.66385500       0.15999300 </v>
   <v>       0.83709700       0.42096800       0.26877600 </v>
   <v>       0.71910300       0.62523800       0.30061700 </v>
   <v>       0.26427400       0.34931300       0.39172400 </v>
   <v>       0.56321900       0.02536000       0.29963000 </v>
   <v>       0.69623400       0.85638400       0.29960800 </v>
   <v>       0.88922000       0.12379200       0.04754630 </v>
   <v>       0.21175600       0.63430300       0.17479500 </v>
  </varray>
 </structure>
 <calculation>
  <scstep>
   <time name="diag">    0.35    0.35</time>
   <time name="diis">    0.43    0.44</time>
   <time name="orth">    0.10    0.10</time>
   <time name="total">    0.96    1.05</time>
   <energy>
    <i name="alphaZ">    316.14514549 </i>
    <i name="ewald"> -14958.24709597 </i>
    <i name="hartreedc">    -91.04707160 </i>
    <i name="XCdc">   -777.86642143 </i>
    <i name="pawpsdc">   8803.41707833 </i>
    <i name="pawaedc">  -7043.47671478 </i>
    <i name="eentropy">     -0.00217605 </i>
    <i name="bandstr">   4812.67237098 </i>
    <i name="atom">  10306.12861560 </i>
    <i name="e_fr_energy">   1367.72373056 </i>
    <i name="e_wo_entrp">   1367.72590661 </i>
    <i name="e_0_energy">   1367.72481859 </i>
   </energy>
  </scstep>
  <scstep>
   <time name="diag">    0.34    0.34</time>
   <time name="diis">    0.43    0.44</time>
   <time name="orth">    0.10    0.10</time>
   <time name="total">    0.87    0.88</time>
   <energy>
    <i name="e_fr_energy">     -0.39584105 </i>
    <i name="e_wo_entrp">     -0.36763727 </i>
    <i name="e_0_energy">     -0.38173916 </i>
   </energy>
  </scstep>
  <scstep>
   <time name="diag">    0.34    0.34</time>
   <time name="diis">    0.44    0.45</time>
   <time name="orth">    0.10    0.10</time>
   <time name="total">    0.88    0.88</time>
   <energy>
    <i name="e_fr_energy">   -285.96729816 </i>
    <i name="e_wo_entrp">   -285.92945336 </i>
    <i name="e_0_energy">   -285.94837576 </i>
   </energy>
  </scstep>
  <scstep>
   <time name="diag">    0.34    0.34</time>
   <time name="diis">    0.43    0.44</time>
   <time name="orth">    0.10    0.10</time>
   <time name="total">    0.87    0.87</time>
   <energy>
    <i name="e_fr_energy">   -364.98376435 </i>
    <i name="e_wo_entrp">   -364.92486270 </i>
    <i name="e_0_energy">   -364.95431352 </i>
   </energy>
  </scstep>
  <scstep>
   <time name="diag">    0.34    0.34</time>
   <time name="diis">    0.44    0.44</time>
   <time name="orth">    0.10    0.10</time>
   <time name="total">    0.87    0.88</time>
   <energy>
    <i name="e_fr_energy">   -391.02974234 </i>
    <i name="e_wo_entrp">   -390.98831940 </i>
    <i name="e_0_energy">   -391.00903087 </i>
   </energy>
  </scstep>
  <scstep>
   <time name="diag">    0.34    0.34</time>
   <time name="diis">    0.44    0.44</time>
   <time name="orth">    0.10    0.10</time>
   <time name="total">    0.87    0.88</time>
   <energy>
    <i name="e_fr_energy">   -400.51609133 </i>
    <i name="e_wo_entrp">   -400.47289053 </i>
    <i name="e_0_energy">   -400.49449093 </i>
   </energy>
  </scstep>
  <scstep>
   <time name="diag">    0.34    0.34</time>
   <time name="diis">    0.45    0.45</time>
   <time name="orth">    0.10    0.10</time>
   <time name="total">    0.88    0.89</time>
   <energy>
    <i name="e_fr_energy">   -403.95096713 </i>
    <i name="e_wo_entrp">   -403.91452656 </i>
    <i name="e_0_energy">   -403.93274685 </i>
   </energy>
  </scstep>
  <scstep>
   <time name="diag">    0.34    0.34</time>
   <time name="diis">    0.43    0.44</time>
   <time name="orth">    0.10    0.10</time>
   <time name="total">    0.87    0.88</time>
   <energy>
    <i name="e_fr_energy">   -405.33880549 </i>
    <i name="e_wo_entrp">   -405.30225359 </i>
    <i name="e_0_energy">   -405.32052954 </i>
   </energy>
  </scstep>
  <scstep>
   <time name="diag">    0.34    0.34</time>
   <time name="diis">    0.96    0.97</time>
   <time name="orth">    0.10    0.10</time>
   <time name="total">    1.39    1.41</time>
   <energy>
    <i name="e_fr_energy">   -406.12473943 </i>
    <i name="e_wo_entrp">   -406.08521137 </i>
    <i name="e_0_energy">   -406.10497540 </i>
   </energy>
  </scstep>
  <scstep>
   <time name="diag">    0.34    0.34</time>
   <time name="diis">    0.94    0.95</time>
   <time name="orth">    0.10    0.10</time>
   <time name="total">    1.37    1.39</time>
   <energy>
    <i name="e_fr_energy">   -406.22809491 </i>
    <i name="e_wo_entrp">   -406.18780906 </i>
    <i name="e_0_energy">   -406.20795198 </i>
   </energy>
  </scstep>
  <scstep>
   <time name="diag">    0.34    0.34</time>
   <time name="diis">    0.90    0.91</time>
   <time name="orth">    0.10    0.10</time>
   <time name="total">    1.34    1.35</time>
   <energy>
    <i name="e_fr_energy">   -406.23053924 </i>
    <i name="e_wo_entrp">   -406.19026287 </i>
    <i name="e_0_energy">   -406.21040106 </i>
   </energy>
  </scstep>
  <scstep>
   <time name="diag">    0.34    0.34</time>
   <time name="diis">    0.80    0.81</time>
   <time name="orth">    0.10    0.10</time>
   <time name="total">    1.28    1.30</time>
   <energy>
    <i name="e_fr_energy">   -406.23055525 </i>
    <i name="e_wo_entrp">   -406.19027883 </i>
    <i name="e_0_energy">   -406.21041704 </i>
   </energy>
  </scstep>
  <scstep>
   <time name="diag">    0.34    0.34</time>
   <time name="diis">    0.89    0.90</time>
   <time name="orth">    0.10    0.10</time>
   <time name="total">    1.46    1.48</time>
   <energy>
    <i name="e_fr_energy">   -413.25985604 </i>
    <i name="e_wo_entrp">   -413.20622146 </i>
    <i name="e_0_energy">   -413.23303875 </i>
   </energy>
  </scstep>
  <scstep>
   <time name="diag">    0.33    0.34</time>
   <time name="diis">    0.89    0.90</time>
   <time name="orth">    0.10    0.12</time>
   <time name="total">    1.45    1.49</time>
   <energy>
    <i name="e_fr_energy">   -421.36171705 </i>
    <i name="e_wo_entrp">   -421.31545834 </i>
    <i name="e_0_energy">   -421.33858769 </i>
   </energy>
  </scstep>
  <scstep>
   <time name="diag">    0.33    0.34</time>
   <time name="diis">    0.92    0.93</time>
   <time name="orth">    0.10    0.10</time>
   <time name="total">    1.49    1.50</time>
   <energy>
    <i name="e_fr_energy">   -422.11126738 </i>
    <i name="e_wo_entrp">   -422.06849999 </i>
    <i name="e_0_energy">   -422.08988368 </i>
   </energy>
  </scstep>
  <scstep>
   <time name="diag">    0.34    0.34</time>
   <time name="diis">    0.91    0.92</time>
   <time name="orth">    0.10    0.10</time>
   <time name="total">    1.48    1.49</time>
   <energy>
    <i name="e_fr_energy">   -422.28114339 </i>
    <i name="e_wo_entrp">   -422.24199591 </i>
    <i name="e_0_energy">   -422.26156965 </i>
   </energy>
  </scstep>
  <scstep>
   <time name="diag">    0.33    0.34</time>
   <time name="diis">    0.93    0.94</time>
   <time name="orth">    0.10    0.10</time>
   <time name="total">    1.49    1.51</time>
   <energy>
    <i name="e_fr_energy">   -422.37804203 </i>
    <i name="e_wo_entrp">   -422.34238997 </i>
    <i name="e_0_energy">   -422.36021600 </i>
   </energy>
  </scstep>
  <scstep>
   <time name="diag">    0.34    0.34</time>
   <time name="diis">    0.89    0.92</time>
   <time name="orth">    0.10    0.10</time>
   <time name="total">    1.46    1.49</time>
   <energy>
    <i name="e_fr_energy">   -422.41779436 </i>
    <i name="e_wo_entrp">   -422.38333609 </i>
    <i name="e_0_energy">   -422.40056522 </i>
   </energy>
  </scstep>
  <scstep>
   <time name="diag">    0.34    0.34</time>
   <time name="diis">    0.91    0.93</time>
   <time name="orth">    0.10    0.10</time>
   <time name="total">    1.49    1.50</time>
   <energy>
    <i name="e_fr_energy">   -422.42244272 </i>
    <i name="e_wo_entrp">   -422.38544028 </i>
    <i name="e_0_energy">   -422.40394150 </i>
   </energy>
  </scstep>
  <scstep>
   <time name="diag">    0.34    0.34</time>
   <time name="diis">    0.94    0.95</time>
   <time name="orth">    0.10    0.10</time>
   <time name="total">    1.51    1.53</time>
   <energy>
    <i name="e_fr_energy">   -422.42365201 </i>
    <i name="e_wo_entrp">   -422.38617665 </i>
    <i name="e_0_energy">   -422.40491433 </i>
   </energy>
  </scstep>
  <scstep>
   <time name="diag">    0.34    0.34</time>
   <time name="diis">    0.94    0.95</time>
   <time name="orth">    0.10    0.10</time>
   <time name="total">    1.51    1.53</time>
   <energy>
    <i name="e_fr_energy">   -422.42383630 </i>
    <i name="e_wo_entrp">   -422.38602218 </i>
    <i name="e_0_energy">   -422.40492924 </i>
   </energy>
  </scstep>
  <scstep>
   <time name="diag">    0.34    0.34</time>
   <time name="diis">    0.93    0.94</time>
   <time name="orth">    0.10    0.10</time>
   <time name="total">    1.50    1.52</time>
   <energy>
    <i name="e_fr_energy">   -422.42387208 </i>
    <i name="e_wo_entrp">   -422.38614035 </i>
    <i name="e_0_energy">   -422.40500622 </i>
   </energy>
  </scstep>
  <scstep>
   <time name="diag">    0.34    0.34</time>
   <time name="diis">    0.79    0.80</time>
   <time name="orth">    0.10    0.10</time>
   <time name="total">    1.36    1.37</time>
   <energy>
    <i name="e_fr_energy">   -422.42388274 </i>
    <i name="e_wo_entrp">   -422.38616482 </i>
    <i name="e_0_energy">   -422.40502378 </i>
   </energy>
  </scstep>
  <scstep>
   <time name="diag">    0.34    0.34</time>
   <time name="diis">    0.61    0.62</time>
   <time name="orth">    0.10    0.10</time>
   <time name="total">    1.13    1.14</time>
   <energy>
    <i name="alphaZ">    316.14514549 </i>
    <i name="ewald"> -14958.24709597 </i>
    <i name="hartreedc">   -121.79020633 </i>
    <i name="XCdc">   -770.43975678 </i>
    <i name="pawpsdc">  82847.50538818 </i>
    <i name="pawaedc"> -81101.35176118 </i>
    <i name="eentropy">     -0.03771585 </i>
    <i name="bandstr">   3059.66350339 </i>
    <i name="atom">  10306.12861560 </i>
    <i name="e_fr_energy">   -422.42388345 </i>
    <i name="e_wo_entrp">   -422.38616761 </i>
    <i name="e_0_energy">   -422.40502553 </i>
   </energy>
  </scstep>
  <structure>
   <crystal>
    <varray name="basis" >
     <v>      10.21149500       0.00000000       0.00000000 </v>
     <v>       0.00000000      10.21149500       0.00000000 </v>
     <v>       0.00000000       0.00000000      10.21149500 </v>
    </varray>
    <i name="volume">   1064.79986425 </i>
    <varray name="rec_basis" >
     <v>       0.09792885       0.00000000       0.00000000 </v>
     <v>       0.00000000       0.09792885       0.00000000 </v>
     <v>       0.00000000       0.00000000       0.09792885 </v>
    </varray>
   </crystal>
   <varray name="positions" >
    <v>       0.11838500       0.52806200       0.41773200 </v>
    <v>       0.58212100       0.13743000       0.51030900 </v>
    <v>       0.16968700       0.54173300       0.81511600 </v>
    <v>       0.69268600       0.53130800       0.51266600 </v>
    <v>       0.60941000       0.82912300       0.88560700 </v>
    <v>       0.01548350       0.71532000       0.79490800 </v>
    <v>       0.54520800       0.60185100       0.94824100 </v>
    <v>       0.69187500       0.44043300       0.91480100 </v>
    <v>       0.68757100       0.72842300       0.10256100 </v>
    <v>       0.90028200       0.54783400       0.44769000 </v>
    <v>       0.94018060       0.21534300       0.24632100 </v>
    <v>       0.32866600       0.43332100       0.17181800 </v>
    <v>       0.87576900       0.75980200       0.39207500 </v>
    <v>       0.53008500       0.88536300       0.08520360 </v>
    <v>       0.84455700       0.02502820       0.66550100 </v>
    <v>       0.06816650       0.29733800       0.82083500 </v>
    <v>       0.18611500       0.90418000       0.54670000 </v>
    <v>       0.01467320       0.95468600       0.40465800 </v>
    <v>       0.70912500       0.95048600       0.50511200 </v>
    <v>       0.71094200       0.81383000       0.67468600 </v>
    <v>       0.77594600       0.44974200       0.70395400 </v>
    <v>       0.93800600       0.84032400       0.59041300 </v>
    <v>       0.41209700       0.18181400       0.34749100 </v>
    <v>       0.85982000       0.85983400       0.84630600 </v>
    <v>       0.80025800       0.03757640       0.27025300 </v>
    <v>       0.61229000       0.22684300       0.91580800 </v>
    <v>       0.97474100       0.84238200       0.20681100 </v>
    <v>       0.93251100       0.26674700       0.64350700 </v>
    <v>       0.85775200       0.27504600       0.87237000 </v>
    <v>       0.61402000       0.74906200       0.47965400 </v>
    <v>       0.01435250       0.93711200       0.00065627 </v>
    <v>       0.10487400       0.39448300       0.23637700 </v>
    <v>       0.72565300       0.31036800       0.09858280 </v>
    <v>       0.16545300       0.76053200       0.95652800 </v>
    <v>       0.11349500       0.15693400       0.01295700 </v>
    <v>       0.44045500       0.94812300       0.52057200 </v>
    <v>       0.22947000       0.16172200       0.80075300 </v>
    <v>       0.96347300       0.34770100       0.05553550 </v>
    <v>       0.95148100       0.73228300       0.02411330 </v>
    <v>       0.84255900       0.54376600       0.08147050 </v>
    <v>       0.96922000       0.08912460       0.83303300 </v>
    <v>       0.58838000       0.99872000       0.69647800 </v>
    <v>       0.46543400       0.83879800       0.31791800 </v>
    <v>       0.34312300       0.57957400       0.35391400 </v>
    <v>       0.47222300       0.77548400       0.67239200 </v>
    <v>       0.06386860       0.08049530       0.60580300 </v>
    <v>       0.86535100       0.13939700       0.45860300 </v>
    <v>       0.42720200       0.31039100       0.53756900 </v>
    <v>       0.49241600       0.01287140       0.89184900 </v>
    <v>       0.12240500       0.91830500       0.77796900 </v>
    <v>       0.39335100       0.79264500       0.91808400 </v>
    <v>       0.10296400       0.67860200       0.58035200 </v>
    <v>       0.13790500       0.16002400       0.38364400 </v>
    <v>       0.25113700       0.22040700       0.19441700 </v>
    <v>       0.33457600       0.95003000       0.74395400 </v>
    <v>       0.48346400       0.56369400       0.52260800 </v>
    <v>       0.68212700       0.23503600       0.30421500 </v>
    <v>       0.16503500       0.78985500       0.32700400 </v>
    <v>       0.37337100       0.19727500       0.96620700 </v>
    <v>       0.33106600       0.74624300       0.50863500 </v>
    <v>       0.25361000       0.73495300       0.72609900 </v>
    <v>       0.78553500       0.91259500       0.08499070 </v>
    <v>       0.40882000       0.58261500       0.76633800 </v>
    <v>       0.40111300       0.04676510       0.14005300 </v>
    <v>       0.30767500       0.58483400       0.98575900 </v>
    <v>       0.60123000       0.49442000       0.13500200 </v>
    <v>       0.48199500       0.27176900       0.15566300 </v>
    <v>       0.00777000       0.48413300       0.65180900 </v>
    <v>       0.86105100       0.64877500       0.64190400 </v>
    <v>       0.11529700       0.03206440       0.19947400 </v>
    <v>       0.27492500       0.49992600       0.57786300 </v>
    <v>       0.77088800       0.32997800       0.49711100 </v>
    <v>       0.00178000       0.60612700       0.25030100 </v>
    <v>       0.76635100       0.64353200       0.88685700 </v>
    <v>       0.70995400       0.22296700       0.69275000 </v>
    <v>       0.29660300       0.99216300       0.35577700 </v>
    <v>       0.07275950       0.53676000       0.04126370 </v>
    <v>       0.99395550       0.32206500       0.42241900 </v>
    <v>       0.56161700       0.42609300       0.34536500 </v>
    <v>       0.64369700       0.08917020       0.09563600 </v>
    <v>       0.21497800       0.37480100       0.98864900 </v>
    <v>       0.30162800       0.36621400       0.76192900 </v>
    <v>       0.15867700       0.31012700       0.58624700 </v>
    <v>       0.45825400       0.40009100       0.94809700 </v>
    <v>       0.28938500       0.85046900       0.15833800 </v>
    <v>       0.94155900       0.50943900       0.86177500 </v>
    <v>       0.28688800       0.11652600       0.56581700 </v>
    <v>       0.25545700       0.97054600       0.96502500 </v>
    <v>       0.60969200       0.61021700       0.71264200 </v>
    <v>       0.54123800       0.37934200       0.72224500 </v>
    <v>       0.73607600       0.04167430       0.88420700 </v>
    <v>       0.44106000       0.16937900       0.72860300 </v>
    <v>       0.45326500       0.66385500       0.15999300 </v>
    <v>       0.83709700       0.42096800       0.26877600 </v>
    <v>       0.71910300       0.62523800       0.30061700 </v>
    <v>       0.26427400       0.34931300       0.39172400 </v>
    <v>       0.56321900       0.02536000       0.29963000 </v>
    <v>       0.69623400       0.85638400       0.29960800 </v>
    <v>       0.88922000       0.12379200       0.04754630 </v>
    <v>       0.21175600       0.63430300       0.17479500 </v>
   </varray>
  </structure>
  <varray name="forces" >
   <v>       0.87079944       0.29526009       0.55065260 </v>
   <v>       0.04371690       1.19119465       0.04913719 </v>
   <v>      -0.22132970      -0.51906574      -0.22874725 </v>
   <v>       0.38639459       0.27464627      -0.70854215 </v>
   <v>       2.30005125      -1.36044800      -0.96219269 </v>
   <v>       0.34583082       0.32234951      -0.41247021 </v>
   <v>      -0.66955117       2.03836770      -0.56110981 </v>
   <v>       0.68621528      -1.53802572      -0.48415703 </v>
   <v>       0.12158540      -2.04733439       0.01436504 </v>
   <v>       0.13125439      -0.71666804      -0.02877490 </v>
   <v>       0.75161743      -1.15454231      -1.24131077 </v>
   <v>       1.56994019       0.50163979       0.51205502 </v>
   <v>       0.73931340       0.82528322       0.16977975 </v>
   <v>       0.47497857      -0.56444336       0.95855386 </v>
   <v>      -0.93325276       0.78188425       0.38260309 </v>
   <v>       0.54812135       2.36500091       0.03196969 </v>
   <v>      -0.55197799       0.21861595       0.54480766 </v>
   <v>      -0.64984072       0.55633945      -0.65171471 </v>
   <v>       0.80284212       1.27777103      -2.24550456 </v>
   <v>       0.34000179      -1.37368493       0.98897951 </v>
   <v>      -0.04453488      -1.37496479       0.91521963 </v>
   <v>       1.75006193       1.35502335       0.25837192 </v>
   <v>       0.73107970       0.67798617       1.01125675 </v>
   <v>      -0.65030161       0.33975655       0.01154845 </v>
   <v>       1.71318543       0.83569744      -0.20373698 </v>
   <v>      -0.57300447      -0.14208889      -0.82969156 </v>
   <v>      -0.09861354       0.75354730       0.91121789 </v>
   <v>       0.08342539      -0.49668800       0.42639179 </v>
   <v>      -2.88711378       0.39581033      -0.23153875 </v>
   <v>      -0.87980272      -0.37157428      -0.51175628 </v>
   <v>       1.25084567       1.63936498       0.45643841 </v>
   <v>      -0.22901114      -0.24690222      -1.29301848 </v>
   <v>       0.58038773      -0.81049133      -0.57081211 </v>
   <v>       0.62810335      -0.21936462       1.04741541 </v>
   <v>       1.03831217       0.36166731      -0.28808331 </v>
   <v>       0.89172027       0.07153075       0.41953121 </v>
   <v>      -0.89538917      -3.07902237      -0.66077525 </v>
   <v>       0.47059718      -0.93728896       0.29040388 </v>
   <v>      -0.91340572      -1.42991063      -0.17268839 </v>
   <v>      -1.10340543       0.24267724       0.61001660 </v>
   <v>       1.50029242      -0.80050442      -0.51647503 </v>
   <v>       0.23485094       0.52170142      -0.01119235 </v>
   <v>      -0.92654886      -3.36713697       0.45045812 </v>
   <v>       0.39177398       0.06068945      -0.67886388 </v>
   <v>       0.91702561       1.50387121       0.59058490 </v>
   <v>      -0.35992011       0.32537234       0.65994667 </v>
   <v>      -0.08967429      -2.77595289      -0.04331747 </v>
   <v>       1.15562055       0.38201298      -0.15262863 </v>
   <v>      -0.34189653       1.77105850       2.13731212 </v>
   <v>      -2.30754850       0.85148383      -0.37346418 </v>
   <v>      -0.86716480      -0.83454893      -0.11780703 </v>
   <v>      -0.33146030       0.19764901      -1.47018946 </v>
   <v>      -0.23864637      -0.91105901       0.53898978 </v>
   <v>      -0.55514076      -0.42060155      -1.50960245 </v>
   <v>       0.96126454       0.77734776      -0.86024562 </v>
   <v>      -1.79763742      -0.60150441       0.54119752 </v>
   <v>      -0.07456145      -0.33776202       0.50899404 </v>
   <v>      -0.59075191      -0.84391993       2.28771426 </v>
   <v>      -0.30772529      -0.68045024       0.63287631 </v>
   <v>      -0.42278856      -0.95539762      -1.63785959 </v>
   <v>       0.00229256       0.33741301       0.94289645 </v>
   <v>       1.23393993       1.07621298      -1.16558456 </v>
   <v>      -2.03501458      -1.94044098       0.54809510 </v>
   <v>      -0.99330584       1.88247502      -0.29967941 </v>
   <v>       1.39299750      -0.18721089      -0.73421686 </v>
   <v>      -0.28226773      -0.39331677       1.00423209 </v>
   <v>       1.82070022       0.60191714      -0.29477589 </v>
   <v>       0.99880790      -1.69468126      -1.15728511 </v>
   <v>      -1.95283869      -0.11006038       0.29419422 </v>
   <v>      -0.45678707      -1.02388011       0.10720793 </v>
   <v>      -0.11195672       1.12466188       0.68057298 </v>
   <v>      -1.74369440       0.47403774      -0.25870476 </v>
   <v>      -1.23424799       1.44704159      -0.97404546 </v>
   <v>       0.06545881       2.22762214      -1.10827173 </v>
   <v>      -0.73596677      -1.00359600       0.24746633 </v>
   <v>      -1.09832790      -0.42928749      -0.53618066 </v>
   <v>       0.28071527       0.94421269      -0.52776543 </v>
   <v>       0.23346461       2.44586165       1.95396328 </v>
   <v>      -0.91790190       0.25001048       0.74933158 </v>
   <v>      -0.03199700       0.77965279      -0.41978760 </v>
   <v>       0.05437041      -1.66335457      -0.52267922 </v>
   <v>       1.18013617       0.72089350       0.44334725 </v>
   <v>      -0.94685844      -0.94920108       0.37847769 </v>
   <v>      -1.06667633       0.07771819       0.27426549 </v>
   <v>       0.10582589      -0.30727790      -1.07980407 </v>
   <v>      -0.10377430      -1.29407083       0.22503122 </v>
   <v>       0.16590528       0.36077878      -0.45797305 </v>
   <v>      -0.41056379       1.55481008       0.41910581 </v>
   <v>       2.19932625      -0.35414166       0.62827808 </v>
   <v>       0.40810493       0.48075735       0.11408649 </v>
   <v>      -0.22609121       0.59492329      -0.39502573 </v>
   <v>       1.08951276       0.60920598      -0.22652964 </v>
   <v>      -0.12928958       0.74136445       0.62622367 </v>
   <v>      -0.36847745      -0.34075613       0.52631277 </v>
   <v>      -0.94832298      -1.28112606      -0.22418598 </v>
   <v>       0.53882963       1.23877895      -0.61402844 </v>
   <v>       0.65890151       2.11852200       0.85739923 </v>
   <v>       0.18939286      -2.66497942      -1.12038407 </v>
   <v>      -1.30195838      -0.19598910       0.75907578 </v>
   <v>       0.57842675       0.94324477       1.08682604 </v>
  </varray>
  <varray name="stress" >
   <v>     603.33879895      -5.16887431      10.05617462 </v>
   <v>      -5.16887443     671.92079668       3.27043254 </v>
   <v>      10.05617456       3.27043271     558.72375169 </v>
  </varray>
  <energy>
   <i name="e_fr_energy">   -422.42388345 </i>
   <i name="e_wo_entrp">   -422.40502553 </i>
   <i name="e_0_energy">     -0.03771585 </i>
  </energy>
  <time name="totalsc">   31.81   32.40</time>
  <eigenvalues>
   <array>
    <dimension dim="1">band</dimension>
    <dimension dim="2">kpoint</dimension>
    <dimension dim="3">spin</dimension>
    <field>eigene</field>
    <field>occ</field>
    <set>
     <set comment="spin 1">
      <set comment="kpoint 1">
       <r>   -3.0357    1.0000 </r>
       <r>   -1.8882    1.0000 </r>
       <r>   -1.8130    1.0000 </r>
       <r>   -1.6828    1.0000 </r>
       <r>   -1.6584    1.0000 </r>
       <r>   -1.5137    1.0000 </r>
       <r>   -1.4169    1.0000 </r>
       <r>   -0.6107    1.0000 </r>
       <r>   -0.4768    1.0000 </r>
       <r>   -0.4684    1.0000 </r>
       <r>   -0.4201    1.0000 </r>
       <r>   -0.3495    1.0000 </r>
       <r>   -0.3088    1.0000 </r>
       <r>   -0.2429    1.0000 </r>
       <r>   -0.2016    1.0000 </r>
       <r>   -0.1733    1.0000 </r>
       <r>   -0.0555    1.0000 </r>
       <r>    0.0867    1.0000 </r>
       <r>    0.2522    1.0000 </r>
       <r>    0.9316    1.0000 </r>
       <r>    0.9700    1.0000 </r>
       <r>    1.0281    1.0000 </r>
       <r>    1.0946    1.0000 </r>
       <r>    1.1076    1.0000 </r>
       <r>    1.1958    1.0000 </r>
       <r>    1.3065    1.0000 </r>
       <r>    1.4020    1.0000 </r>
       <r>    2.3158    1.0000 </r>
       <r>    2.3325    1.0000 </r>
       <r>    2.4255    1.0000 </r>
       <r>    2.4797    1.0000 </r>
       <r>    2.5383    1.0000 </r>
       <r>    2.6423    1.0000 </r>
       <r>    3.3434    1.0000 </r>
       <r>    3.3903    1.0000 </r>
       <r>    3.4429    1.0000 </r>
       <r>    3.5042    1.0000 </r>
       <r>    3.5202    1.0000 </r>
       <r>    3.5658    1.0000 </r>
       <r>    3.6087    1.0000 </r>
       <r>    3.6444    1.0000 </r>
       <r>    3.6786    1.0000 </r>
       <r>    3.6902    1.0000 </r>
       <r>    3.7306    1.0000 </r>
       <r>    3.7541    1.0000 </r>
       <r>    3.8000    1.0000 </r>
       <r>    3.8353    1.0000 </r>
       <r>    3.8845    1.0000 </r>
       <r>    3.9093    1.0000 </r>
       <r>    3.9179    1.0000 </r>
       <r>    3.9497    1.0000 </r>
       <r>    4.0249    1.0000 </r>
       <r>    4.0991    1.0000 </r>
       <r>    4.1575    1.0000 </r>
       <r>    4.2331    1.0000 </r>
       <r>    4.2624    1.0000 </r>
       <r>    4.4517    1.0000 </r>
       <r>    4.7651    1.0000 </r>
       <r>    4.8450    1.0000 </r>
       <r>    4.8726    1.0000 </r>
       <r>    4.8781    1.0000 </r>
       <r>    4.9000    1.0000 </r>
       <r>    4.9595    1.0000 </r>
       <r>    4.9799    1.0000 </r>
       <r>    5.0575    1.0000 </r>
       <r>    5.0639    1.0000 </r>
       <r>    5.0973    1.0000 </r>
       <r>    5.1281    1.0000 </r>
       <r>    5.1462    1.0000 </r>
       <r>    5.1821    1.0000 </r>
       <r>    5.1960    1.0000 </r>
       <r>    5.2209    1.0000 </r>
       <r>    5.2940    1.0000 </r>
       <r>    5.3601    1.0000 </r>
       <r>    5.3965    1.0000 </r>
       <r>    5.4591    1.0000 </r>
       <r>    5.5477    1.0000 </r>
       <r>    5.6204    1.0000 </r>
       <r>    5.6723    1.0000 </r>
       <r>    5.7727    1.0000 </r>
       <r>    5.8917    1.0000 </r>
       <r>    7.3871    1.0000 </r>
       <r>    7.4619    1.0000 </r>
       <r>    7.5237    1.0000 </r>
       <r>    7.5730    1.0000 </r>
       <r>    7.6028    1.0000 </r>
       <r>    7.6506    1.0000 </r>
       <r>    7.7078    1.0000 </r>
       <r>    7.7354    1.0000 </r>
       <r>    7.7935    1.0000 </r>
       <r>    7.8754    1.0000 </r>
       <r>    7.9083    1.0000 </r>
       <r>    7.9803    1.0000 </r>
       <r>    8.3805    1.0000 </r>
       <r>    8.4407    1.0000 </r>
       <r>    8.5208    1.0000 </r>
       <r>    8.5740    1.0000 </r>
       <r>    8.6132    1.0000 </r>
       <r>    8.6429    1.0000 </r>
       <r>    8.7113    1.0000 </r>
       <r>    8.7791    1.0000 </r>
       <r>    8.8047    1.0000 </r>
       <r>    8.8207    1.0000 </r>
       <r>    8.8653    1.0000 </r>
       <r>    8.9062    1.0000 </r>
       <r>    8.9589    1.0000 </r>
       <r>    8.9897    1.0000 </r>
       <r>    9.0441    1.0000 </r>
       <r>    9.0804    1.0000 </r>
       <r>    9.1255    1.0000 </r>
       <r>    9.1670    1.0000 </r>
       <r>    9.1960    1.0000 </r>
       <r>    9.2270    1.0000 </r>
       <r>    9.2719    1.0000 </r>
       <r>    9.3173    1.0000 </r>
       <r>    9.3505    1.0000 </r>
       <r>    9.3976    1.0000 </r>
       <r>    9.4330    1.0000 </r>
       <r>    9.4963    1.0000 </r>
       <r>    9.5347    1.0000 </r>
       <r>    9.6295    1.0000 </r>
       <r>    9.6778    1.0000 </r>
       <r>    9.7588    1.0000 </r>
       <r>    9.9999    1.0000 </r>
       <r>   10.0965    1.0000 </r>
       <r>   10.1488    1.0000 </r>
       <r>   10.1863    1.0000 </r>
       <r>   10.2185    1.0000 </r>
       <r>   10.2487    1.0000 </r>
       <r>   10.2876    1.0000 </r>
       <r>   10.3191    1.0000 </r>
       <r>   10.3933    1.0000 </r>
       <r>   10.4192    1.0000 </r>
       <r>   10.4607    1.0000 </r>
       <r>   10.5050    1.0000 </r>
       <r>   10.5157    1.0000 </r>
       <r>   10.5568    1.0000 </r>
       <r>   10.5977    1.0000 </r>
       <r>   10.6289    1.0000 </r>
       <r>   10.6684    1.0000 </r>
       <r>   10.7680    1.0000 </r>
       <r>   10.7904    1.0000 </r>
       <r>   10.8285    1.0000 </r>
       <r>   10.8682    1.0000 </r>
       <r>   10.9239    1.0000 </r>
       <r>   10.9966    1.0000 </r>
       <r>   11.1862    1.0000 </r>
       <r>   11.3354    1.0000 </r>
       <r>   11.4084    1.0000 </r>
       <r>   11.4361    1.0000 </r>
       <r>   11.4937    1.0000 </r>
       <r>   11.5230    1.0000 </r>
       <r>   11.5712    1.0000 </r>
       <r>   11.6193    1.0000 </r>
       <r>   11.6258    1.0000 </r>
       <r>   11.6901    1.0000 </r>
       <r>   11.7207    1.0000 </r>
       <r>   11.8156    1.0000 </r>
       <r>   11.8579    1.0000 </r>
       <r>   11.9110    1.0000 </r>
       <r>   11.9258    1.0000 </r>
       <r>   11.9421    1.0000 </r>
       <r>   11.9607    1.0000 </r>
       <r>   12.0035    1.0000 </r>
       <r>   12.0947    1.0000 </r>
       <r>   12.1252    1.0000 </r>
       <r>   12.1371    1.0000 </r>
       <r>   12.2177    1.0000 </r>
       <r>   12.2654    1.0000 </r>
       <r>   12.3194    1.0000 </r>
       <r>   12.4733    1.0000 </r>
       <r>   12.7540    1.0000 </r>
       <r>   12.9119    1.0000 </r>
       <r>   13.0422    1.0000 </r>
       <r>   13.1412    1.0000 </r>
       <r>   13.2521    1.0000 </r>
       <r>   13.2991    1.0000 </r>
       <r>   13.3538    1.0000 </r>
       <r>   13.3933    1.0000 </r>
       <r>   13.6778    1.0000 </r>
       <r>   13.7509    1.0000 </r>
       <r>   13.7800    1.0000 </r>
       <r>   13.8146    1.0000 </r>
       <r>   13.8756    1.0000 </r>
       <r>   13.9765    1.0000 </r>
       <r>   14.0186    1.0000 </r>
       <r>   14.0750    1.0000 </r>
       <r>   14.0865    1.0000 </r>
       <r>   14.2035    1.0000 </r>
       <r>   14.2458    1.0000 </r>
       <r>   14.2871    1.0000 </r>
       <r>   14.3704    1.0000 </r>
       <r>   14.4400    1.0000 </r>
       <r>   14.4717    1.0000 </r>
       <r>   14.4969    1.0000 </r>
       <r>   14.5982    1.0000 </r>
       <r>   14.6869    1.0000 </r>
       <r>   14.7041    1.0000 </r>
       <r>   14.7710    0.9951 </r>
       <r>   14.8279    0.8355 </r>
       <r>   14.8972    0.1622 </r>
       <r>   14.9456    0.0093 </r>
       <r>   14.9831    0.0003 </r>
       <r>   15.0593    0.0000 </r>
       <r>   15.0773    0.0000 </r>
       <r>   15.0897    0.0000 </r>
       <r>   15.1548    0.0000 </r>
       <r>   15.1741    0.0000 </r>
       <r>   15.2302    0.0000 </r>
       <r>   15.2686    0.0000 </r>
       <r>   15.2823    0.0000 </r>
       <r>   15.3455    0.0000 </r>
       <r>   15.3747    0.0000 </r>
       <r>   15.4359    0.0000 </r>
       <r>   15.4706    0.0000 </r>
       <r>   15.5120    0.0000 </r>
       <r>   15.5445    0.0000 </r>
       <r>   15.5840    0.0000 </r>
       <r>   15.6176    0.0000 </r>
       <r>   15.6399    0.0000 </r>
       <r>   15.7119    0.0000 </r>
       <r>   15.7295    0.0000 </r>
       <r>   15.7341    0.0000 </r>
       <r>   15.7725    0.0000 </r>
       <r>   15.8020    0.0000 </r>
       <r>   15.8289    0.0000 </r>
       <r>   15.8557    0.0000 </r>
       <r>   15.8930    0.0000 </r>
       <r>   15.9276    0.0000 </r>
       <r>   15.9563    0.0000 </r>
       <r>   15.9742    0.0000 </r>
       <r>   16.0581    0.0000 </r>
       <r>   16.0854    0.0000 </r>
       <r>   16.1333    0.0000 </r>
       <r>   16.1653    0.0000 </r>
       <r>   16.2111    0.0000 </r>
       <r>   16.2607    0.0000 </r>
       <r>   16.2774    0.0000 </r>
       <r>   16.3808    0.0000 </r>
       <r>   16.3907    0.0000 </r>
       <r>   16.4473    0.0000 </r>
       <r>   16.5300    0.0000 </r>
       <r>   16.5474    0.0000 </r>
       <r>   16.5732    0.0000 </r>
       <r>   16.6586    0.0000 </r>
       <r>   16.7137    0.0000 </r>
       <r>   16.7473    0.0000 </r>
       <r>   16.8580    0.0000 </r>
       <r>   16.8837    0.0000 </r>
       <r>   16.9459    0.0000 </r>
       <r>   17.0982    0.0000 </r>
       <r>   17.8737    0.0000 </r>
       <r>   17.9117    0.0000 </r>
       <r>   18.0502    0.0000 </r>
       <r>   18.0893    0.0000 </r>
       <r>   18.3189    0.0000 </r>
       <r>   18.4007    0.0000 </r>
       <r>   18.5477    0.0000 </r>
       <r>   18.5977    0.0000 </r>
       <r>   18.7009    0.0000 </r>
       <r>   18.7988    0.0000 </r>
       <r>   18.8119    0.0000 </r>
       <r>   18.8377    0.0000 </r>
       <r>   18.8774    0.0000 </r>
       <r>   18.8924    0.0000 </r>
       <r>   18.9435    0.0000 </r>
       <r>   18.9983    0.0000 </r>
       <r>   19.0088    0.0000 </r>
       <r>   19.0557    0.0000 </r>
       <r>   19.1076    0.0000 </r>
       <r>   19.1317    0.0000 </r>
       <r>   19.1584    0.0000 </r>
       <r>   19.2048    0.0000 </r>
       <r>   19.2152    0.0000 </r>
       <r>   19.2512    0.0000 </r>
       <r>   19.2999    0.0000 </r>
       <r>   19.3317    0.0000 </r>
       <r>   19.3535    0.0000 </r>
       <r>   19.3847    0.0000 </r>
       <r>   19.3974    0.0000 </r>
       <r>   19.4330    0.0000 </r>
       <r>   19.4476    0.0000 </r>
       <r>   19.4819    0.0000 </r>
       <r>   19.5125    0.0000 </r>
       <r>   19.5758    0.0000 </r>
       <r>   19.5942    0.0000 </r>
       <r>   19.6106    0.0000 </r>
       <r>   19.6463    0.0000 </r>
       <r>   19.6944    0.0000 </r>
       <r>   19.7452    0.0000 </r>
       <r>   19.7744    0.0000 </r>
       <r>   19.7771    0.0000 </r>
       <r>   19.8324    0.0000 </r>
       <r>   19.8573    0.0000 </r>
       <r>   19.9334    0.0000 </r>
       <r>   19.9603    0.0000 </r>
       <r>   20.0012    0.0000 </r>
       <r>   20.0494    0.0000 </r>
       <r>   20.1077    0.0000 </r>
       <r>   20.1668    0.0000 </r>
       <r>   20.2389    0.0000 </r>
       <r>   20.2874    0.0000 </r>
       <r>   20.3512    0.0000 </r>
       <r>   20.5723    0.0000 </r>
      </set>
     </set>
     <set comment="spin 2">
      <set comment="kpoint 1">
       <r>   -3.0356    1.0000 </r>
       <r>   -1.8881    1.0000 </r>
       <r>   -1.8129    1.0000 </r>
       <r>   -1.6827    1.0000 </r>
       <r>   -1.6583    1.0000 </r>
       <r>   -1.5135    1.0000 </r>
       <r>   -1.4168    1.0000 </r>
       <r>   -0.6106    1.0000 </r>
       <r>   -0.4767    1.0000 </r>
       <r>   -0.4683    1.0000 </r>
       <r>   -0.4200    1.0000 </r>
       <r>   -0.3494    1.0000 </r>
       <r>   -0.3087    1.0000 </r>
       <r>   -0.2428    1.0000 </r>
       <r>   -0.2014    1.0000 </r>
       <r>   -0.1731    1.0000 </r>
       <r>   -0.0554    1.0000 </r>
       <r>    0.0868    1.0000 </r>
       <r>    0.2523    1.0000 </r>
       <r>    0.9318    1.0000 </r>
       <r>    0.9701    1.0000 </r>
       <r>    1.0282    1.0000 </r>
       <r>    1.0947    1.0000 </r>
       <r>    1.1078    1.0000 </r>
       <r>    1.1960    1.0000 </r>
       <r>    1.3066    1.0000 </r>
       <r>    1.4021    1.0000 </r>
       <r>    2.3159    1.0000 </r>
       <r>    2.3326    1.0000 </r>
       <r>    2.4256    1.0000 </r>
       <r>    2.4799    1.0000 </r>
       <r>    2.5384    1.0000 </r>
       <r>    2.6425    1.0000 </r>
       <r>    3.3436    1.0000 </r>
       <r>    3.3905    1.0000 </r>
       <r>    3.4430    1.0000 </r>
       <r>    3.5043    1.0000 </r>
       <r>    3.5203    1.0000 </r>
       <r>    3.5659    1.0000 </r>
       <r>    3.6088    1.0000 </r>
       <r>    3.6445    1.0000 </r>
       <r>    3.6787    1.0000 </r>
       <r>    3.6903    1.0000 </r>
       <r>    3.7307    1.0000 </r>
       <r>    3.7542    1.0000 </r>
       <r>    3.8001    1.0000 </r>
       <r>    3.8354    1.0000 </r>
       <r>    3.8846    1.0000 </r>
       <r>    3.9094    1.0000 </r>
       <r>    3.9180    1.0000 </r>
       <r>    3.9498    1.0000 </r>
       <r>    4.0251    1.0000 </r>
       <r>    4.0992    1.0000 </r>
       <r>    4.1576    1.0000 </r>
       <r>    4.2332    1.0000 </r>
       <r>    4.2625    1.0000 </r>
       <r>    4.4518    1.0000 </r>
       <r>    4.7652    1.0000 </r>
       <r>    4.8451    1.0000 </r>
       <r>    4.8727    1.0000 </r>
       <r>    4.8783    1.0000 </r>
       <r>    4.9001    1.0000 </r>
       <r>    4.9597    1.0000 </r>
       <r>    4.9800    1.0000 </r>
       <r>    5.0577    1.0000 </r>
       <r>    5.0641    1.0000 </r>
       <r>    5.0975    1.0000 </r>
       <r>    5.1282    1.0000 </r>
       <r>    5.1463    1.0000 </r>
       <r>    5.1822    1.0000 </r>
       <r>    5.1961    1.0000 </r>
       <r>    5.2210    1.0000 </r>
       <r>    5.2942    1.0000 </r>
       <r>    5.3602    1.0000 </r>
       <r>    5.3966    1.0000 </r>
       <r>    5.4592    1.0000 </r>
       <r>    5.5478    1.0000 </r>
       <r>    5.6205    1.0000 </r>
       <r>    5.6725    1.0000 </r>
       <r>    5.7729    1.0000 </r>
       <r>    5.8918    1.0000 </r>
       <r>    7.3873    1.0000 </r>
       <r>    7.4620    1.0000 </r>
       <r>    7.5239    1.0000 </r>
       <r>    7.5731    1.0000 </r>
       <r>    7.6029    1.0000 </r>
       <r>    7.6507    1.0000 </r>
       <r>    7.7079    1.0000 </r>
       <r>    7.7355    1.0000 </r>
       <r>    7.7936    1.0000 </r>
       <r>    7.8756    1.0000 </r>
       <r>    7.9084    1.0000 </r>
       <r>    7.9804    1.0000 </r>
       <r>    8.3806    1.0000 </r>
       <r>    8.4408    1.0000 </r>
       <r>    8.5209    1.0000 </r>
       <r>    8.5742    1.0000 </r>
       <r>    8.6134    1.0000 </r>
       <r>    8.6430    1.0000 </r>
       <r>    8.7114    1.0000 </r>
       <r>    8.7792    1.0000 </r>
       <r>    8.8048    1.0000 </r>
       <r>    8.8208    1.0000 </r>
       <r>    8.8655    1.0000 </r>
       <r>    8.9063    1.0000 </r>
       <r>    8.9591    1.0000 </r>
       <r>    8.9898    1.0000 </r>
       <r>    9.0442    1.0000 </r>
       <r>    9.0805    1.0000 </r>
       <r>    9.1256    1.0000 </r>
       <r>    9.1671    1.0000 </r>
       <r>    9.1962    1.0000 </r>
       <r>    9.2271    1.0000 </r>
       <r>    9.2721    1.0000 </r>
       <r>    9.3174    1.0000 </r>
       <r>    9.3506    1.0000 </r>
       <r>    9.3977    1.0000 </r>
       <r>    9.4331    1.0000 </r>
       <r>    9.4964    1.0000 </r>
       <r>    9.5348    1.0000 </r>
       <r>    9.6296    1.0000 </r>
       <r>    9.6780    1.0000 </r>
       <r>    9.7589    1.0000 </r>
       <r>   10.0000    1.0000 </r>
       <r>   10.0967    1.0000 </r>
       <r>   10.1489    1.0000 </r>
       <r>   10.1864    1.0000 </r>
       <r>   10.2187    1.0000 </r>
       <r>   10.2488    1.0000 </r>
       <r>   10.2877    1.0000 </r>
       <r>   10.3192    1.0000 </r>
       <r>   10.3934    1.0000 </r>
       <r>   10.4193    1.0000 </r>
       <r>   10.4608    1.0000 </r>
       <r>   10.5051    1.0000 </r>
       <r>   10.5158    1.0000 </r>
       <r>   10.5569    1.0000 </r>
       <r>   10.5979    1.0000 </r>
       <r>   10.6291    1.0000 </r>
       <r>   10.6686    1.0000 </r>
       <r>   10.7682    1.0000 </r>
       <r>   10.7906    1.0000 </r>
       <r>   10.8286    1.0000 </r>
       <r>   10.8684    1.0000 </r>
       <r>   10.9241    1.0000 </r>
       <r>   10.9968    1.0000 </r>
       <r>   11.1863    1.0000 </r>
       <r>   11.3355    1.0000 </r>
       <r>   11.4085    1.0000 </r>
       <r>   11.4362    1.0000 </r>
       <r>   11.4939    1.0000 </r>
       <r>   11.5231    1.0000 </r>
       <r>   11.5713    1.0000 </r>
       <r>   11.6194    1.0000 </r>
       <r>   11.6260    1.0000 </r>
       <r>   11.6902    1.0000 </r>
       <r>   11.7208    1.0000 </r>
       <r>   11.8158    1.0000 </r>
       <r>   11.8580    1.0000 </r>
       <r>   11.9111    1.0000 </r>
       <r>   11.9259    1.0000 </r>
       <r>   11.9423    1.0000 </r>
       <r>   11.9608    1.0000 </r>
       <r>   12.0037    1.0000 </r>
       <r>   12.0949    1.0000 </r>
       <r>   12.1254    1.0000 </r>
       <r>   12.1372    1.0000 </r>
       <r>   12.2178    1.0000 </r>
       <r>   12.2656    1.0000 </r>
       <r>   12.3195    1.0000 </r>
       <r>   12.4734    1.0000 </r>
       <r>   12.7541    1.0000 </r>
       <r>   12.9121    1.0000 </r>
       <r>   13.0424    1.0000 </r>
       <r>   13.1414    1.0000 </r>
       <r>   13.2522    1.0000 </r>
       <r>   13.2992    1.0000 </r>
       <r>   13.3539    1.0000 </r>
       <r>   13.3934    1.0000 </r>
       <r>   13.6780    1.0000 </r>
       <r>   13.7511    1.0000 </r>
       <r>   13.7802    1.0000 </r>
       <r>   13.8147    1.0000 </r>
       <r>   13.8757    1.0000 </r>
       <r>   13.9766    1.0000 </r>
       <r>   14.0187    1.0000 </r>
       <r>   14.0752    1.0000 </r>
       <r>   14.0866    1.0000 </r>
       <r>   14.2036    1.0000 </r>
       <r>   14.2459    1.0000 </r>
       <r>   14.2872    1.0000 </r>
       <r>   14.3705    1.0000 </r>
       <r>   14.4401    1.0000 </r>
       <r>   14.4718    1.0000 </r>
       <r>   14.4970    1.0000 </r>
       <r>   14.5983    1.0000 </r>
       <r>   14.6870    1.0000 </r>
       <r>   14.7043    1.0000 </r>
       <r>   14.7711    0.9951 </r>
       <r>   14.8282    0.8332 </r>
       <r>   14.8976    0.1598 </r>
       <r>   14.9457    0.0092 </r>
       <r>   14.9832    0.0003 </r>
       <r>   15.0595    0.0000 </r>
       <r>   15.0775    0.0000 </r>
       <r>   15.0898    0.0000 </r>
       <r>   15.1550    0.0000 </r>
       <r>   15.1742    0.0000 </r>
       <r>   15.2304    0.0000 </r>
       <r>   15.2687    0.0000 </r>
       <r>   15.2825    0.0000 </r>
       <r>   15.3456    0.0000 </r>
       <r>   15.3749    0.0000 </r>
       <r>   15.4361    0.0000 </r>
       <r>   15.4707    0.0000 </r>
       <r>   15.5121    0.0000 </r>
       <r>   15.5446    0.0000 </r>
       <r>   15.5842    0.0000 </r>
       <r>   15.6177    0.0000 </r>
       <r>   15.6400    0.0000 </r>
       <r>   15.7120    0.0000 </r>
       <r>   15.7296    0.0000 </r>
       <r>   15.7342    0.0000 </r>
       <r>   15.7726    0.0000 </r>
       <r>   15.8022    0.0000 </r>
       <r>   15.8291    0.0000 </r>
       <r>   15.8559    0.0000 </r>
       <r>   15.8931    0.0000 </r>
[...]
       <r>    -1.0999     0.0000     7.0000 </r>
       <r>    -1.0133     0.0000     7.0000 </r>
       <r>    -0.9267     0.0000     7.0000 </r>
       <r>    -0.8402     0.0000     7.0000 </r>
       <r>    -0.7536     0.0003     7.0000 </r>
       <r>    -0.6670     0.6367     7.0551 </r>
       <r>    -0.5805     8.6643     7.8052 </r>
       <r>    -0.4939     8.7735     8.5646 </r>
       <r>    -0.4074    23.8061    10.6253 </r>
       <r>    -0.3208    17.8216    12.1680 </r>
       <r>    -0.2342    18.8069    13.7960 </r>
       <r>    -0.1477    22.0089    15.7011 </r>
       <r>    -0.0611     8.4802    16.4352 </r>
       <r>     0.0255     6.8740    17.0302 </r>
       <r>     0.1120     8.4547    17.7621 </r>
       <r>     0.1986     3.4816    18.0635 </r>
       <r>     0.2851     8.7790    18.8234 </r>
       <r>     0.3717     2.0357    18.9996 </r>
       <r>     0.4583     0.0042    19.0000 </r>
       <r>     0.5448     0.0000    19.0000 </r>
       <r>     0.6314     0.0000    19.0000 </r>
       <r>     0.7180     0.0000    19.0000 </r>
       <r>     0.8045     0.0019    19.0002 </r>
       <r>     0.8911     1.5871    19.1375 </r>
       <r>     0.9776    16.4819    20.5643 </r>
       <r>     1.0642    18.2552    22.1445 </r>
       <r>     1.1508    20.6456    23.9316 </r>
       <r>     1.2373    11.2302    24.9037 </r>
       <r>     1.3239     9.2080    25.7008 </r>
       <r>     1.4105    10.2899    26.5915 </r>
       <r>     1.4970     4.6767    26.9964 </r>
       <r>     1.5836     0.0420    27.0000 </r>
       <r>     1.6702     0.0000    27.0000 </r>
       <r>     1.7567     0.0000    27.0000 </r>
       <r>     1.8433     0.0000    27.0000 </r>
       <r>     1.9298     0.0000    27.0000 </r>
       <r>     2.0164     0.0000    27.0000 </r>
       <r>     2.1030     0.0000    27.0000 </r>
       <r>     2.1895     0.0023    27.0002 </r>
       <r>     2.2761     2.1360    27.1851 </r>
       <r>     2.3627    18.0479    28.7474 </r>
       <r>     2.4492    13.8479    29.9461 </r>
       <r>     2.5358    16.9529    31.4136 </r>
       <r>     2.6223     9.9617    32.2759 </r>
       <r>     2.7089     8.0175    32.9699 </r>
       <r>     2.7955     0.3475    33.0000 </r>
       <r>     2.8820     0.0001    33.0000 </r>
       <r>     2.9686     0.0000    33.0000 </r>
       <r>     3.0552     0.0000    33.0000 </r>
       <r>     3.1417     0.0000    33.0000 </r>
       <r>     3.2283     0.0064    33.0006 </r>
       <r>     3.3148     2.5886    33.2246 </r>
       <r>     3.4014    16.9561    34.6924 </r>
       <r>     3.4880    19.8616    36.4117 </r>
       <r>     3.5745    26.4651    38.7026 </r>
       <r>     3.6611    28.2641    41.1492 </r>
       <r>     3.7477    34.1569    44.1059 </r>
       <r>     3.8342    26.6010    46.4086 </r>
       <r>     3.9208    32.2820    49.2030 </r>
       <r>     4.0073    23.6709    51.2520 </r>
       <r>     4.0939    13.8482    52.4507 </r>
       <r>     4.1805    15.6794    53.8080 </r>
       <r>     4.2670    18.1639    55.3803 </r>
       <r>     4.3536     7.1289    55.9974 </r>
       <r>     4.4402     4.3105    56.3705 </r>
       <r>     4.5267     7.0743    56.9829 </r>
       <r>     4.6133     0.1975    57.0000 </r>
       <r>     4.6998     0.3729    57.0323 </r>
       <r>     4.7864     8.7148    57.7867 </r>
       <r>     4.8730    25.0640    59.9563 </r>
       <r>     4.9595    31.9246    62.7197 </r>
       <r>     5.0461    23.1658    64.7250 </r>
       <r>     5.1327    35.7508    67.8197 </r>
       <r>     5.2192    37.5220    71.0677 </r>
       <r>     5.3058    18.6971    72.6862 </r>
       <r>     5.3923    18.6054    74.2968 </r>
       <r>     5.4789    16.5177    75.7266 </r>
       <r>     5.5655    11.8323    76.7508 </r>
       <r>     5.6520    15.5175    78.0940 </r>
       <r>     5.7386    12.0272    79.1352 </r>
       <r>     5.8252     9.5323    79.9603 </r>
       <r>     5.9117     8.7043    80.7138 </r>
       <r>     5.9983     3.2918    80.9987 </r>
       <r>     6.0849     0.0149    81.0000 </r>
       <r>     6.1714     0.0000    81.0000 </r>
       <r>     6.2580     0.0000    81.0000 </r>
       <r>     6.3445     0.0000    81.0000 </r>
       <r>     6.4311     0.0000    81.0000 </r>
       <r>     6.5177     0.0000    81.0000 </r>
       <r>     6.6042     0.0000    81.0000 </r>
       <r>     6.6908     0.0000    81.0000 </r>
       <r>     6.7774     0.0000    81.0000 </r>
       <r>     6.8639     0.0000    81.0000 </r>
       <r>     6.9505     0.0000    81.0000 </r>
       <r>     7.0370     0.0000    81.0000 </r>
       <r>     7.1236     0.0000    81.0000 </r>
       <r>     7.2102     0.0000    81.0000 </r>
       <r>     7.2967     0.0603    81.0052 </r>
       <r>     7.3833     5.3472    81.4681 </r>
       <r>     7.4699    13.5715    82.6429 </r>
       <r>     7.5564    18.3851    84.2343 </r>
       <r>     7.6430    23.8408    86.2981 </r>
       <r>     7.7295    21.7914    88.1844 </r>
       <r>     7.8161    18.3840    89.7758 </r>
       <r>     7.9027    16.7620    91.2267 </r>
       <r>     7.9892    15.7114    92.5868 </r>
       <r>     8.0758     4.7336    92.9965 </r>
       <r>     8.1624     0.0403    93.0000 </r>
       <r>     8.2489     0.0011    93.0001 </r>
       <r>     8.3355     1.1814    93.1024 </r>
       <r>     8.4220    12.4480    94.1799 </r>
       <r>     8.5086    13.7470    95.3699 </r>
       <r>     8.5952    19.9620    97.0978 </r>
       <r>     8.6817    22.4290    99.0394 </r>
       <r>     8.7683    17.4174   100.5471 </r>
       <r>     8.8549    30.5759   103.1938 </r>
       <r>     8.9414    23.4030   105.2196 </r>
       <r>     9.0280    23.2075   107.2285 </r>
       <r>     9.1145    23.5315   109.2655 </r>
       <r>     9.2011    27.2535   111.6246 </r>
       <r>     9.2877    25.8313   113.8606 </r>
       <r>     9.3742    24.6472   115.9942 </r>
       <r>     9.4608    22.2450   117.9198 </r>
       <r>     9.5474    19.0975   119.5729 </r>
       <r>     9.6339    12.4693   120.6523 </r>
       <r>     9.7205    15.7870   122.0188 </r>
       <r>     9.8071    10.3314   122.9131 </r>
       <r>     9.8936     1.0176   123.0012 </r>
       <r>     9.9802     3.3106   123.2878 </r>
       <r>    10.0667    10.2999   124.1794 </r>
       <r>    10.1533    17.6263   125.7052 </r>
       <r>    10.2399    28.3108   128.1559 </r>
       <r>    10.3264    26.6474   130.4625 </r>
       <r>    10.4130    20.4131   132.2295 </r>
       <r>    10.4996    28.1552   134.6667 </r>
       <r>    10.5861    29.8805   137.2533 </r>
       <r>    10.6727    25.0748   139.4238 </r>
       <r>    10.7592    13.6862   140.6085 </r>
       <r>    10.8458    26.3407   142.8886 </r>
       <r>    10.9324    19.6553   144.5901 </r>
       <r>    11.0189    13.1813   145.7311 </r>
       <r>    11.1055     3.2228   146.0100 </r>
       <r>    11.1921     6.4010   146.5641 </r>
       <r>    11.2786     5.6049   147.0493 </r>
       <r>    11.3652    10.1940   147.9317 </r>
       <r>    11.4517    20.3988   149.6975 </r>
       <r>    11.5383    23.7397   151.7525 </r>
       <r>    11.6249    26.1667   154.0175 </r>
       <r>    11.7114    24.1716   156.1099 </r>
       <r>    11.7980    14.1797   157.3373 </r>
       <r>    11.8846    21.0791   159.1620 </r>
       <r>    11.9711    37.8712   162.4402 </r>
       <r>    12.0577    19.3996   164.1195 </r>
       <r>    12.1442    24.2655   166.2200 </r>
       <r>    12.2308    18.3321   167.8069 </r>
       <r>    12.3174    18.4299   169.4022 </r>
       <r>    12.4039     7.0932   170.0162 </r>
       <r>    12.4905     7.7355   170.6858 </r>
       <r>    12.5771     3.6098   170.9983 </r>
       <r>    12.6636     0.0798   171.0052 </r>
       <r>    12.7502     5.2010   171.4554 </r>
       <r>    12.8367     6.3698   172.0068 </r>
       <r>    12.9233     7.1423   172.6251 </r>
       <r>    13.0099     6.3682   173.1763 </r>
       <r>    13.0964     9.9639   174.0388 </r>
       <r>    13.1830    10.0191   174.9061 </r>
       <r>    13.2696    11.4549   175.8977 </r>
       <r>    13.3561    19.8437   177.6154 </r>
       <r>    13.4427    14.9820   178.9123 </r>
       <r>    13.5292     1.0127   179.0000 </r>
       <r>    13.6158     0.4564   179.0395 </r>
       <r>    13.7024     9.4097   179.8540 </r>
       <r>    13.7889    21.2680   181.6950 </r>
       <r>    13.8755    20.3119   183.4533 </r>
       <r>    13.9621    10.7990   184.3880 </r>
       <r>    14.0486    20.3254   186.1475 </r>
       <r>    14.1352    20.2127   187.8971 </r>
       <r>    14.2218    12.4538   188.9752 </r>
       <r>    14.3083    20.2030   190.7240 </r>
       <r>    14.3949    13.2444   191.8705 </r>
       <r>    14.4814    22.4669   193.8153 </r>
       <r>    14.5680    15.6553   195.1704 </r>
       <r>    14.6546    11.9404   196.2040 </r>
       <r>    14.7411    20.6784   197.9940 </r>
       <r>    14.8277    16.9830   199.4641 </r>
       <r>    14.9143    16.4333   200.8866 </r>
       <r>    15.0008    20.9408   202.6993 </r>
       <r>    15.0874    25.4398   204.9015 </r>
       <r>    15.1739    27.1159   207.2487 </r>
       <r>    15.2605    25.7569   209.4783 </r>
       <r>    15.3471    25.5570   211.6906 </r>
       <r>    15.4336    21.8145   213.5789 </r>
       <r>    15.5202    25.4683   215.7835 </r>
       <r>    15.6068    28.4760   218.2484 </r>
       <r>    15.6933    26.0627   220.5045 </r>
       <r>    15.7799    37.3866   223.7408 </r>
       <r>    15.8664    34.2615   226.7066 </r>
       <r>    15.9530    31.6834   229.4492 </r>
       <r>    16.0396    22.0389   231.3569 </r>
       <r>    16.1261    23.6824   233.4069 </r>
       <r>    16.2127    24.5639   235.5332 </r>
       <r>    16.2993    23.8855   237.6008 </r>
       <r>    16.3858    16.5953   239.0374 </r>
       <r>    16.4724    20.5298   240.8145 </r>
       <r>    16.5589    22.5140   242.7634 </r>
       <r>    16.6455    18.4392   244.3595 </r>
       <r>    16.7321    19.0804   246.0112 </r>
       <r>    16.8186    13.0559   247.1413 </r>
       <r>    16.9052    18.6940   248.7595 </r>
       <r>    16.9918    13.1979   249.9020 </r>
       <r>    17.0783     4.4306   250.2855 </r>
       <r>    17.1649     7.9087   250.9701 </r>
       <r>    17.2514     0.3455   251.0000 </r>
       <r>    17.3380     0.0001   251.0000 </r>
       <r>    17.4246     0.0000   251.0000 </r>
       <r>    17.5111     0.0000   251.0000 </r>
       <r>    17.5977     0.0000   251.0000 </r>
       <r>    17.6843     0.0000   251.0000 </r>
       <r>    17.7708     0.0209   251.0018 </r>
       <r>    17.8574     4.3938   251.3821 </r>
       <r>    17.9439    16.3296   252.7957 </r>
       <r>    18.0305     6.2310   253.3351 </r>
       <r>    18.1171    16.3864   254.7535 </r>
       <r>    18.2036     2.8467   254.9999 </r>
       <r>    18.2902     2.4071   255.2083 </r>
       <r>    18.3768    11.4228   256.1971 </r>
       <r>    18.4633     8.9289   256.9700 </r>
       <r>    18.5499     7.4046   257.6110 </r>
       <r>    18.6365    14.7811   258.8905 </r>
       <r>    18.7230     9.9877   259.7550 </r>
       <r>    18.8096    18.2943   261.3386 </r>
       <r>    18.8961    33.8977   264.2729 </r>
       <r>    18.9827    24.9884   266.4360 </r>
       <r>    19.0693    26.8976   268.7643 </r>
       <r>    19.1558    28.8737   271.2637 </r>
       <r>    19.2424    32.5672   274.0828 </r>
       <r>    19.3290    28.7790   276.5740 </r>
       <r>    19.4155    39.2863   279.9747 </r>
       <r>    19.5021    35.3153   283.0317 </r>
       <r>    19.5886    27.0977   285.3774 </r>
       <r>    19.6752    30.8612   288.0488 </r>
       <r>    19.7618    26.3978   290.3339 </r>
       <r>    19.8483    31.1407   293.0295 </r>
       <r>    19.9349    20.2888   294.7857 </r>
       <r>    20.0215    22.6754   296.7486 </r>
       <r>    20.1080    21.2736   298.5901 </r>
       <r>    20.1946    16.3681   300.0069 </r>
       <r>    20.2811    13.5065   301.1761 </r>
       <r>    20.3677    16.1360   302.5729 </r>
       <r>    20.4543    11.3861   303.5585 </r>
       <r>    20.5408     5.0474   303.9954 </r>
       <r>    20.6274     0.0530   304.0000 </r>
       <r>    20.7140     0.0000   304.0000 </r>
       <r>    20.8005     0.0000   304.0000 </r>
       <r>    20.8871     0.0000   304.0000 </r>
       <r>    20.9736     0.0000   304.0000 </r>
       <r>    21.0602     0.0000   304.0000 </r>
       <r>    21.1468     0.0000   304.0000 </r>
       <r>    21.2333     0.0000   304.0000 </r>
       <r>    21.3199     0.0000   304.0000 </r>
       <r>    21.4065     0.0000   304.0000 </r>
       <r>    21.4930     0.0000   304.0000 </r>
       <r>    21.5796     0.0000   304.0000 </r>
       <r>    21.6661     0.0000   304.0000 </r>
       <r>    21.7527     0.0000   304.0000 </r>
      </set>
     </set>
    </array>
   </total>
  </dos>
 </calculation>
 <structure name="finalpos" >
  <crystal>
   <varray name="basis" >
    <v>      10.21149500       0.00000000       0.00000000 </v>
    <v>       0.00000000      10.21149500       0.00000000 </v>
    <v>       0.00000000       0.00000000      10.21149500 </v>
   </varray>
   <i name="volume">   1064.79986425 </i>
   <varray name="rec_basis" >
    <v>       0.09792885       0.00000000       0.00000000 </v>
    <v>       0.00000000       0.09792885       0.00000000 </v>
    <v>       0.00000000       0.00000000       0.09792885 </v>
   </varray>
  </crystal>
  <varray name="positions" >
   <v>       0.11838500       0.52806200       0.41773200 </v>
   <v>       0.58212100       0.13743000       0.51030900 </v>
   <v>       0.16968700       0.54173300       0.81511600 </v>
   <v>       0.69268600       0.53130800       0.51266600 </v>
   <v>       0.60941000       0.82912300       0.88560700 </v>
   <v>       0.01548350       0.71532000       0.79490800 </v>
   <v>       0.54520800       0.60185100       0.94824100 </v>
   <v>       0.69187500       0.44043300       0.91480100 </v>
   <v>       0.68757100       0.72842300       0.10256100 </v>
   <v>       0.90028200       0.54783400       0.44769000 </v>
   <v>       0.94018060       0.21534300       0.24632100 </v>
   <v>       0.32866600       0.43332100       0.17181800 </v>
   <v>       0.87576900       0.75980200       0.39207500 </v>
   <v>       0.53008500       0.88536300       0.08520360 </v>
   <v>       0.84455700       0.02502820       0.66550100 </v>
   <v>       0.06816650       0.29733800       0.82083500 </v>
   <v>       0.18611500       0.90418000       0.54670000 </v>
   <v>       0.01467320       0.95468600       0.40465800 </v>
   <v>       0.70912500       0.95048600       0.50511200 </v>
   <v>       0.71094200       0.81383000       0.67468600 </v>
   <v>       0.77594600       0.44974200       0.70395400 </v>
   <v>       0.93800600       0.84032400       0.59041300 </v>
   <v>       0.41209700       0.18181400       0.34749100 </v>
   <v>       0.85982000       0.85983400       0.84630600 </v>
   <v>       0.80025800       0.03757640       0.27025300 </v>
   <v>       0.61229000       0.22684300       0.91580800 </v>
   <v>       0.97474100       0.84238200       0.20681100 </v>
   <v>       0.93251100       0.26674700       0.64350700 </v>
   <v>       0.85775200       0.27504600       0.87237000 </v>
   <v>       0.61402000       0.74906200       0.47965400 </v>
   <v>       0.01435250       0.93711200       0.00065627 </v>
   <v>       0.10487400       0.39448300       0.23637700 </v>
   <v>       0.72565300       0.31036800       0.09858280 </v>
   <v>       0.16545300       0.76053200       0.95652800 </v>
   <v>       0.11349500       0.15693400       0.01295700 </v>
   <v>       0.44045500       0.94812300       0.52057200 </v>
   <v>       0.22947000       0.16172200       0.80075300 </v>
   <v>       0.96347300       0.34770100       0.05553550 </v>
   <v>       0.95148100       0.73228300       0.02411330 </v>
   <v>       0.84255900       0.54376600       0.08147050 </v>
   <v>       0.96922000       0.08912460       0.83303300 </v>
   <v>       0.58838000       0.99872000       0.69647800 </v>
   <v>       0.46543400       0.83879800       0.31791800 </v>
   <v>       0.34312300       0.57957400       0.35391400 </v>
   <v>       0.47222300       0.77548400       0.67239200 </v>
   <v>       0.06386860       0.08049530       0.60580300 </v>
   <v>       0.86535100       0.13939700       0.45860300 </v>
   <v>       0.42720200       0.31039100       0.53756900 </v>
   <v>       0.49241600       0.01287140       0.89184900 </v>
   <v>       0.12240500       0.91830500       0.77796900 </v>
   <v>       0.39335100       0.79264500       0.91808400 </v>
   <v>       0.10296400       0.67860200       0.58035200 </v>
   <v>       0.13790500       0.16002400       0.38364400 </v>
   <v>       0.25113700       0.22040700       0.19441700 </v>
   <v>       0.33457600       0.95003000       0.74395400 </v>
   <v>       0.48346400       0.56369400       0.52260800 </v>
   <v>       0.68212700       0.23503600       0.30421500 </v>
   <v>       0.16503500       0.78985500       0.32700400 </v>
   <v>       0.37337100       0.19727500       0.96620700 </v>
   <v>       0.33106600       0.74624300       0.50863500 </v>
   <v>       0.25361000       0.73495300       0.72609900 </v>
   <v>       0.78553500       0.91259500       0.08499070 </v>
   <v>       0.40882000       0.58261500       0.76633800 </v>
   <v>       0.40111300       0.04676510       0.14005300 </v>
   <v>       0.30767500       0.58483400       0.98575900 </v>
   <v>       0.60123000       0.49442000       0.13500200 </v>
   <v>       0.48199500       0.27176900       0.15566300 </v>
   <v>       0.00777000       0.48413300       0.65180900 </v>
   <v>       0.86105100       0.64877500       0.64190400 </v>
   <v>       0.11529700       0.03206440       0.19947400 </v>
   <v>       0.27492500       0.49992600       0.57786300 </v>
   <v>       0.77088800       0.32997800       0.49711100 </v>
   <v>       0.00178000       0.60612700       0.25030100 </v>
   <v>       0.76635100       0.64353200       0.88685700 </v>
   <v>       0.70995400       0.22296700       0.69275000 </v>
   <v>       0.29660300       0.99216300       0.35577700 </v>
   <v>       0.07275950       0.53676000       0.04126370 </v>
   <v>       0.99395550       0.32206500       0.42241900 </v>
   <v>       0.56161700       0.42609300       0.34536500 </v>
   <v>       0.64369700       0.08917020       0.09563600 </v>
   <v>       0.21497800       0.37480100       0.98864900 </v>
   <v>       0.30162800       0.36621400       0.76192900 </v>
   <v>       0.15867700       0.31012700       0.58624700 </v>
   <v>       0.45825400       0.40009100       0.94809700 </v>
   <v>       0.28938500       0.85046900       0.15833800 </v>
   <v>       0.94155900       0.50943900       0.86177500 </v>
   <v>       0.28688800       0.11652600       0.56581700 </v>
   <v>       0.25545700       0.97054600       0.96502500 </v>
   <v>       0.60969200       0.61021700       0.71264200 </v>
   <v>       0.54123800       0.37934200       0.72224500 </v>
   <v>       0.73607600       0.04167430       0.88420700 </v>
   <v>       0.44106000       0.16937900       0.72860300 </v>
   <v>       0.45326500       0.66385500       0.15999300 </v>
   <v>       0.83709700       0.42096800       0.26877600 </v>
   <v>       0.71910300       0.62523800       0.30061700 </v>
   <v>       0.26427400       0.34931300       0.39172400 </v>
   <v>       0.56321900       0.02536000       0.29963000 </v>
   <v>       0.69623400       0.85638400       0.29960800 </v>
   <v>       0.88922000       0.12379200       0.04754630 </v>
   <v>       0.21175600       0.63430300       0.17479500 </v>
  </varray>
 </structure>
</modeling>
