unknown system                          
           1
    10.211495    0.000000    0.000000
     0.000000   10.211495    0.000000
     0.000000    0.000000   10.211495
   Si
 100
Direct configuration=     1
   0.11838500  0.52806200  0.41773200
   0.58212100  0.13743000  0.51030900
   0.16968700  0.54173300  0.81511600
   0.69268600  0.53130800  0.51266600
   0.60941000  0.82912300  0.88560700
   0.01548350  0.71532000  0.79490800
   0.54520800  0.60185100  0.94824100
   0.69187500  0.44043300  0.91480100
   0.68757100  0.72842300  0.10256100
   0.90028200  0.54783400  0.44769000
   0.94018060  0.21534300  0.24632100
   0.32866600  0.43332100  0.17181800
   0.87576900  0.75980200  0.39207500
   0.53008500  0.88536300  0.08520360
   0.84455700  0.02502820  0.66550100
   0.06816650  0.29733800  0.82083500
   0.18611500  0.90418000  0.54670000
   0.01467320  0.95468600  0.40465800
   0.70912500  0.95048600  0.50511200
   0.71094200  0.81383000  0.67468600
   0.77594600  0.44974200  0.70395400
   0.93800600  0.84032400  0.59041300
   0.41209700  0.18181400  0.34749100
   0.85982000  0.85983400  0.84630600
   0.80025800  0.03757640  0.27025300
   0.61229000  0.22684300  0.91580800
   0.97474100  0.84238200  0.20681100
   0.93251100  0.26674700  0.64350700
   0.85775200  0.27504600  0.87237000
   0.61402000  0.74906200  0.47965400
   0.01435250  0.93711200  0.00065627
   0.10487400  0.39448300  0.23637700
   0.72565300  0.31036800  0.09858280
   0.16545300  0.76053200  0.95652800
   0.11349500  0.15693400  0.01295700
   0.44045500  0.94812300  0.52057200
   0.22947000  0.16172200  0.80075300
   0.96347300  0.34770100  0.05553550
   0.95148100  0.73228300  0.02411330
   0.84255900  0.54376600  0.08147050
   0.96922000  0.08912460  0.83303300
   0.58838000  0.99872000  0.69647800
   0.46543400  0.83879800  0.31791800
   0.34312300  0.57957400  0.35391400
   0.47222300  0.77548400  0.67239200
   0.06386860  0.08049530  0.60580300
   0.86535100  0.13939700  0.45860300
   0.42720200  0.31039100  0.53756900
   0.49241600  0.01287140  0.89184900
   0.12240500  0.91830500  0.77796900
   0.39335100  0.79264500  0.91808400
   0.10296400  0.67860200  0.58035200
   0.13790500  0.16002400  0.38364400
   0.25113700  0.22040700  0.19441700
   0.33457600  0.95003000  0.74395400
   0.48346400  0.56369400  0.52260800
   0.68212700  0.23503600  0.30421500
   0.16503500  0.78985500  0.32700400
   0.37337100  0.19727500  0.96620700
   0.33106600  0.74624300  0.50863500
   0.25361000  0.73495300  0.72609900
   0.78553500  0.91259500  0.08499070
   0.40882000  0.58261500  0.76633800
   0.40111300  0.04676510  0.14005300
   0.30767500  0.58483400  0.98575900
   0.60123000  0.49442000  0.13500200
   0.48199500  0.27176900  0.15566300
   0.00777000  0.48413300  0.65180900
   0.86105100  0.64877500  0.64190400
   0.11529700  0.03206440  0.19947400
   0.27492500  0.49992600  0.57786300
   0.77088800  0.32997800  0.49711100
   0.00178000  0.60612700  0.25030100
   0.76635100  0.64353200  0.88685700
   0.70995400  0.22296700  0.69275000
   0.29660300  0.99216300  0.35577700
   0.07275950  0.53676000  0.04126370
   0.99395550  0.32206500  0.42241900
   0.56161700  0.42609300  0.34536500
   0.64369700  0.08917020  0.09563600
   0.21497800  0.37480100  0.98864900
   0.30162800  0.36621400  0.76192900
   0.15867700  0.31012700  0.58624700
   0.45825400  0.40009100  0.94809700
   0.28938500  0.85046900  0.15833800
   0.94155900  0.50943900  0.86177500
   0.28688800  0.11652600  0.56581700
   0.25545700  0.97054600  0.96502500
   0.60969200  0.61021700  0.71264200
   0.54123800  0.37934200  0.72224500
   0.73607600  0.04167430  0.88420700
   0.44106000  0.16937900  0.72860300
   0.45326500  0.66385500  0.15999300
   0.83709700  0.42096800  0.26877600
   0.71910300  0.62523800  0.30061700
   0.26427400  0.34931300  0.39172400
   0.56321900  0.02536000  0.29963000
   0.69623400  0.85638400  0.29960800
   0.88922000  0.12379200  0.04754630
   0.21175600  0.63430300  0.17479500
