BEGIN_CFG
 Size
    100
 Supercell
        10.211495      0.000000      0.000000
         0.000000     10.211495      0.000000
         0.000000      0.000000     10.211495
 AtomData:  id type       cartes_x      cartes_y      cartes_z           fx          fy          fz
             1    0       8.169200      6.126900      2.042300     5.619024   -0.472161   -5.554283
             2    0       8.169200      8.169200      0.000000    -0.093482   -5.433355    5.407698
             3    0       6.126900      2.042300      4.084600     1.009855   -0.010512   -5.968829
             4    0       8.169200      2.042300      8.169200     0.011234    5.433867    5.675128
             5    0       4.084600      0.000000      4.084600    -0.355519    0.144489   -0.163527
             6    0       6.126900      8.169200      8.169200     0.182213   -0.123264   -0.735527
             7    0       6.126900      6.126900      4.084600     0.391251   -0.052410   -0.491450
             8    0       6.126900      6.126900      2.042300    -5.626329    4.851380   -0.490417
             9    0       4.084600      0.000000      2.042300     0.966401    0.309991    0.072918
            10    0       0.000000      0.000000      0.000000    -1.105471    0.660265   -4.917570
            11    0       2.042300      2.042300      4.084600    -6.365794   -0.127837   -0.426179
            12    0       8.169200      2.042300      4.084600     4.959082    4.935750   -0.427710
            13    0       0.000000      2.042300      8.169200    -0.572067    0.683011    0.477190
            14    0       8.169200      2.042300      6.126900     0.261056    5.817070   -0.591062
            15    0       0.000000      2.042300      6.126900    -0.369030    0.913773   -5.455341
            16    0       2.042300      0.000000      4.084600    -5.879180    0.358521   -0.032887
            17    0       0.000000      0.000000      6.126900    -0.358370   -0.019919    0.071355
            18    0       2.042300      2.042300      0.000000    -0.263419    1.063119   -0.116353
            19    0       4.084600      2.042300      4.084600     0.328722    0.826028   -0.610626
            20    0       6.126900      8.169200      4.084600     0.623611   -0.034637   -5.413609
            21    0       6.126900      8.169200      0.000000     0.889154   -0.609871    5.828812
            22    0       0.000000      4.084600      6.126900    -4.885456   -0.198317    0.304151
            23    0       6.126900      2.042300      0.000000     6.277966    0.466252    5.601087
            24    0       4.084600      6.126900      4.084600    -0.048371   -0.607219   -5.397328
            25    0       8.169200      0.000000      4.084600     5.168727   -0.093069   -5.605671
            26    0       0.000000      4.084600      2.042300    -5.336641    5.938550   -0.206515
            27    0       2.042300      0.000000      0.000000    -0.508767    0.366105   -0.637458
            28    0       2.042300      4.084600      4.084600    -5.675527    0.023287    0.349837
            29    0       4.084600      4.084600      0.000000    -0.113813    0.682886   -0.537107
            30    0       6.126900      0.000000      8.169200     0.109749    0.152352   -0.069932
            31    0       6.126900      0.000000      4.084600     1.034838   -0.030779   -1.775448
            32    0       2.042300      0.000000      8.169200    -5.923447    0.147325   -0.021334
            33    0       2.042300      8.169200      0.000000    -1.099497   -0.455208    0.441353
            34    0       2.042300      6.126900      4.084600    -0.266028   -0.798485   -1.226851
            35    0       2.042300      4.084600      2.042300    -0.428162    1.135997   -0.377799
            36    0       0.000000      8.169200      0.000000    -0.414259   -0.942690    5.113203
            37    0       4.084600      8.169200      2.042300     6.048230   -6.214509   -0.254169
            38    0       8.169200      6.126900      4.084600     0.506580   -5.271768    4.639342
            39    0       0.000000      2.042300      2.042300    -0.744147    0.343856    5.205689
            40    0       4.084600      0.000000      0.000000     0.117099    0.193311    0.150143
            41    0       6.126900      6.126900      0.000000     4.890160   -0.081247   -0.038879
            42    0       6.126900      4.084600      6.126900     0.280065    0.161464    5.143814
            43    0       0.000000      0.000000      2.042300    -5.814973   -4.957294    5.645377
            44    0       0.000000      6.126900      6.126900    -6.163674   -0.691346   -0.007762
            45    0       4.084600      2.042300      6.126900    -0.067558    6.130099   -0.017290
            46    0       2.042300      4.084600      6.126900     4.495698    0.261348    5.552232
            47    0       8.169200      2.042300      2.042300    -5.514632    0.138204   -5.045167
            48    0       6.126900      2.042300      6.126900     0.012547    1.396757    0.313096
            49    0       4.084600      2.042300      8.169200     0.112563    1.391021   -0.356744
            50    0       8.169200      0.000000      0.000000     0.112191    5.930239    5.433410
            51    0       2.042300      2.042300      8.169200    -0.498264    5.141308   -0.055188
            52    0       2.042300      6.126900      2.042300    -0.546345   -0.308504    0.054954
            53    0       4.084600      0.000000      8.169200    -0.395962   -0.476521   -0.231019
            54    0       0.000000      6.126900      8.169200    -0.929764   -5.649761    0.295853
            55    0       4.084600      4.084600      2.042300     0.279967    5.383281    0.842661
            56    0       0.000000      8.169200      8.169200    -0.001574    5.387717   -0.145607
            57    0       2.042300      6.126900      6.126900     0.835509   -1.071314    0.703554
            58    0       8.169200      8.169200      4.084600     0.101235    0.230034   -0.475470
            59    0       2.042300      6.126900      0.000000    -0.088597   -1.466391    0.458865
            60    0       6.126900      0.000000      6.126900     0.686315   -0.527271    0.298679
            61    0       6.126900      0.000000      0.000000     1.427981    0.590550    1.781232
            62    0       2.042300      0.000000      6.126900    -1.073352   -0.040002    0.414026
            63    0       6.126900      6.126900      6.126900     5.599110   -0.706934    0.912506
            64    0       2.042300      8.169200      2.042300    -5.893726   -1.006250    0.098018
            65    0       4.084600      4.084600      8.169200     0.372085    5.808014   -5.658955
            66    0       2.042300      0.000000      2.042300    -1.304563    0.007282    0.402535
            67    0       0.000000      6.126900      4.084600    -0.410461   -5.531889   -6.022738
            68    0       2.042300      2.042300      6.126900    -0.006800    1.156178    0.227243
            69    0       8.169200      6.126900      8.169200    -0.205884   -4.981352   -0.150811
            70    0       8.169200      8.169200      8.169200     0.261094   -0.600554   -5.646074
            71    0       6.126900      2.042300      8.169200     0.768947    6.090668    0.770288
            72    0       2.042300      6.126900      8.169200     5.440963   -5.860894    0.190812
            73    0       2.042300      8.169200      8.169200    -0.231748    0.004076   -0.322601
            74    0       6.126900      8.169200      6.126900     5.925507   -0.556229    0.171880
            75    0       6.126900      4.084600      0.000000     0.645702   -0.307376   -4.980846
            76    0       4.084600      8.169200      4.084600     0.621792   -0.681551   -0.697541
            77    0       4.084600      8.169200      0.000000     0.728000   -1.041416    0.112585
            78    0       4.084600      4.084600      4.084600     0.215142    0.560133    5.055090
            79    0       0.000000      6.126900      0.000000    -5.388145   -6.218300    6.323440
            80    0       6.126900      6.126900      8.169200    -4.383500   -6.115016    0.222811
            81    0       6.126900      4.084600      4.084600     5.747186   -0.371969   -0.181523
            82    0       2.042300      8.169200      4.084600    -1.156766    0.374543   -0.409778
            83    0       8.169200      0.000000      8.169200     5.427702    0.136345   -0.004584
            84    0       4.084600      6.126900      6.126900     0.418924   -5.807668    5.731034
            85    0       4.084600      2.042300      0.000000     0.572148    0.783802    0.927867
            86    0       4.084600      2.042300      2.042300     6.052250    0.500263    0.080592
            87    0       4.084600      6.126900      0.000000     0.141450   -0.228474    0.268789
            88    0       8.169200      0.000000      6.126900     0.540851   -5.563382   -0.188607
            89    0       4.084600      8.169200      8.169200    -0.034829   -6.210577   -0.507607
            90    0       6.126900      0.000000      2.042300     6.050509    0.427042    0.094486
            91    0       4.084600      0.000000      6.126900    -0.018292    0.032416    0.252034
            92    0       6.126900      4.084600      2.042300     5.205072   -5.059403    0.056570
            93    0       4.084600      8.169200      6.126900     0.221772   -1.051217    0.708444
            94    0       8.169200      4.084600      0.000000     5.960611   -0.313143   -0.003950
            95    0       0.000000      8.169200      4.084600    -0.433174    5.085303   -5.571215
            96    0       0.000000      2.042300      0.000000    -5.653539    5.961675   -0.394859
            97    0       2.042300      4.084600      0.000000    -5.995672    0.212438   -5.084226
            98    0       0.000000      8.169200      6.126900    -5.622506    0.161204    0.039320
            99    0       2.042300      8.169200      6.126900    -0.177378   -0.179490    0.237655
           100    0       2.042300      2.042300      2.042300    -0.211386    0.268158    0.544365
 Energy
       -252.230104000000
 PlusStress:  xx          yy          zz          yz          xz          xy
       967.40952   958.42720   955.50672    14.67417     5.52927    -2.61992
 Feature   EFS_by	VASP
 Feature   MV_grade	1.000000
 Feature   mindist	2.042295
END_CFG

BEGIN_CFG
 Size
    100
 Supercell
        10.211495      0.000000      0.000000
         0.000000     10.211495      0.000000
         0.000000      0.000000     10.211495
 AtomData:  id type       cartes_x      cartes_y      cartes_z           fx          fy          fz
             1    0       8.169200      6.126900      2.042300     5.619023   -0.472160   -5.554280
             2    0       8.169200      8.169200      0.000000    -0.093483   -5.433362    5.407695
             3    0       6.126900      2.042300      4.084600     1.009857   -0.010507   -5.968825
             4    0       8.169200      2.042300      8.169200     0.011238    5.433862    5.675138
             5    0       4.084600      0.000000      4.084600    -0.355517    0.144484   -0.163527
             6    0       6.126900      8.169200      8.169200     0.182214   -0.123265   -0.735534
             7    0       6.126900      6.126900      4.084600     0.391246   -0.052410   -0.491451
             8    0       6.126900      6.126900      2.042300    -5.626327    4.851376   -0.490423
             9    0       4.084600      0.000000      2.042300     0.966400    0.309996    0.072915
            10    0       0.000000      0.000000      0.000000    -1.105477    0.660266   -4.917570
            11    0       2.042300      2.042300      4.084600    -6.365789   -0.127838   -0.426176
            12    0       8.169200      2.042300      4.084600     4.959082    4.935753   -0.427704
            13    0       0.000000      2.042300      8.169200    -0.572067    0.683012    0.477196
            14    0       8.169200      2.042300      6.126900     0.261055    5.817076   -0.591066
            15    0       0.000000      2.042300      6.126900    -0.369030    0.913775   -5.455344
            16    0       2.042300      0.000000      4.084600    -5.879193    0.358514   -0.032889
            17    0       0.000000      0.000000      6.126900    -0.358366   -0.019914    0.071357
            18    0       2.042300      2.042300      0.000000    -0.263419    1.063126   -0.116352
            19    0       4.084600      2.042300      4.084600     0.328726    0.826032   -0.610627
            20    0       6.126900      8.169200      4.084600     0.623605   -0.034643   -5.413606
            21    0       6.126900      8.169200      0.000000     0.889151   -0.609869    5.828811
            22    0       0.000000      4.084600      6.126900    -4.885467   -0.198317    0.304157
            23    0       6.126900      2.042300      0.000000     6.277961    0.466252    5.601078
            24    0       4.084600      6.126900      4.084600    -0.048361   -0.607217   -5.397327
            25    0       8.169200      0.000000      4.084600     5.168728   -0.093068   -5.605669
            26    0       0.000000      4.084600      2.042300    -5.336645    5.938543   -0.206509
            27    0       2.042300      0.000000      0.000000    -0.508764    0.366104   -0.637453
            28    0       2.042300      4.084600      4.084600    -5.675532    0.023288    0.349837
            29    0       4.084600      4.084600      0.000000    -0.113804    0.682884   -0.537109
            30    0       6.126900      0.000000      8.169200     0.109742    0.152361   -0.069935
            31    0       6.126900      0.000000      4.084600     1.034843   -0.030781   -1.775450
            32    0       2.042300      0.000000      8.169200    -5.923445    0.147324   -0.021335
            33    0       2.042300      8.169200      0.000000    -1.099502   -0.455215    0.441353
            34    0       2.042300      6.126900      4.084600    -0.266026   -0.798480   -1.226858
            35    0       2.042300      4.084600      2.042300    -0.428169    1.136005   -0.377804
            36    0       0.000000      8.169200      0.000000    -0.414256   -0.942698    5.113203
            37    0       4.084600      8.169200      2.042300     6.048232   -6.214503   -0.254169
            38    0       8.169200      6.126900      4.084600     0.506591   -5.271768    4.639341
            39    0       0.000000      2.042300      2.042300    -0.744140    0.343864    5.205691
            40    0       4.084600      0.000000      0.000000     0.117100    0.193305    0.150142
            41    0       6.126900      6.126900      0.000000     4.890156   -0.081251   -0.038875
            42    0       6.126900      4.084600      6.126900     0.280062    0.161465    5.143812
            43    0       0.000000      0.000000      2.042300    -5.814976   -4.957296    5.645377
            44    0       0.000000      6.126900      6.126900    -6.163675   -0.691347   -0.007765
            45    0       4.084600      2.042300      6.126900    -0.067557    6.130091   -0.017293
            46    0       2.042300      4.084600      6.126900     4.495702    0.261349    5.552238
            47    0       8.169200      2.042300      2.042300    -5.514633    0.138213   -5.045170
            48    0       6.126900      2.042300      6.126900     0.012553    1.396761    0.313101
            49    0       4.084600      2.042300      8.169200     0.112570    1.391020   -0.356738
            50    0       8.169200      0.000000      0.000000     0.112191    5.930239    5.433412
            51    0       2.042300      2.042300      8.169200    -0.498263    5.141307   -0.055184
            52    0       2.042300      6.126900      2.042300    -0.546350   -0.308508    0.054948
            53    0       4.084600      0.000000      8.169200    -0.395959   -0.476523   -0.231014
            54    0       0.000000      6.126900      8.169200    -0.929774   -5.649766    0.295861
            55    0       4.084600      4.084600      2.042300     0.279969    5.383274    0.842656
            56    0       0.000000      8.169200      8.169200    -0.001580    5.387715   -0.145603
            57    0       2.042300      6.126900      6.126900     0.835511   -1.071314    0.703554
            58    0       8.169200      8.169200      4.084600     0.101239    0.230037   -0.475472
            59    0       2.042300      6.126900      0.000000    -0.088608   -1.466391    0.458865
            60    0       6.126900      0.000000      6.126900     0.686313   -0.527273    0.298685
            61    0       6.126900      0.000000      0.000000     1.427979    0.590552    1.781225
            62    0       2.042300      0.000000      6.126900    -1.073348   -0.040000    0.414021
            63    0       6.126900      6.126900      6.126900     5.599117   -0.706935    0.912508
            64    0       2.042300      8.169200      2.042300    -5.893723   -1.006246    0.098021
            65    0       4.084600      4.084600      8.169200     0.372091    5.808015   -5.658955
            66    0       2.042300      0.000000      2.042300    -1.304565    0.007282    0.402534
            67    0       0.000000      6.126900      4.084600    -0.410462   -5.531892   -6.022739
            68    0       2.042300      2.042300      6.126900    -0.006799    1.156177    0.227242
            69    0       8.169200      6.126900      8.169200    -0.205883   -4.981354   -0.150808
            70    0       8.169200      8.169200      8.169200     0.261091   -0.600554   -5.646073
            71    0       6.126900      2.042300      8.169200     0.768944    6.090661    0.770293
            72    0       2.042300      6.126900      8.169200     5.440968   -5.860891    0.190815
            73    0       2.042300      8.169200      8.169200    -0.231749    0.004080   -0.322599
            74    0       6.126900      8.169200      6.126900     5.925511   -0.556232    0.171885
            75    0       6.126900      4.084600      0.000000     0.645694   -0.307373   -4.980847
            76    0       4.084600      8.169200      4.084600     0.621791   -0.681548   -0.697540
            77    0       4.084600      8.169200      0.000000     0.728007   -1.041414    0.112585
            78    0       4.084600      4.084600      4.084600     0.215144    0.560136    5.055091
            79    0       0.000000      6.126900      0.000000    -5.388139   -6.218292    6.323438
            80    0       6.126900      6.126900      8.169200    -4.383500   -6.115009    0.222811
            81    0       6.126900      4.084600      4.084600     5.747183   -0.371973   -0.181521
            82    0       2.042300      8.169200      4.084600    -1.156766    0.374546   -0.409780
            83    0       8.169200      0.000000      8.169200     5.427703    0.136346   -0.004586
            84    0       4.084600      6.126900      6.126900     0.418921   -5.807666    5.731031
            85    0       4.084600      2.042300      0.000000     0.572158    0.783811    0.927866
            86    0       4.084600      2.042300      2.042300     6.052247    0.500260    0.080583
            87    0       4.084600      6.126900      0.000000     0.141449   -0.228478    0.268794
            88    0       8.169200      0.000000      6.126900     0.540848   -5.563384   -0.188606
            89    0       4.084600      8.169200      8.169200    -0.034823   -6.210579   -0.507608
            90    0       6.126900      0.000000      2.042300     6.050510    0.427034    0.094485
            91    0       4.084600      0.000000      6.126900    -0.018292    0.032417    0.252038
            92    0       6.126900      4.084600      2.042300     5.205072   -5.059401    0.056562
            93    0       4.084600      8.169200      6.126900     0.221774   -1.051218    0.708443
            94    0       8.169200      4.084600      0.000000     5.960606   -0.313146   -0.003951
            95    0       0.000000      8.169200      4.084600    -0.433176    5.085302   -5.571213
            96    0       0.000000      2.042300      0.000000    -5.653539    5.961679   -0.394864
            97    0       2.042300      4.084600      0.000000    -5.995673    0.212440   -5.084224
            98    0       0.000000      8.169200      6.126900    -5.622505    0.161201    0.039317
            99    0       2.042300      8.169200      6.126900    -0.177382   -0.179490    0.237654
           100    0       2.042300      2.042300      2.042300    -0.211387    0.268153    0.544361
 Energy
       -252.230103970000
 PlusStress:  xx          yy          zz          yz          xz          xy
       967.40973   958.42717   955.50687    14.67416     5.52926    -2.61986
 Feature   EFS_by	VASP
 Feature   MV_grade	1.000000
 Feature   mindist	2.042295
END_CFG

BEGIN_CFG
 Size
    100
 Supercell
        10.211495      0.000000      0.000000
         0.000000     10.211495      0.000000
         0.000000      0.000000     10.211495
 AtomData:  id type       cartes_x      cartes_y      cartes_z           fx          fy          fz
             1    0       8.169200      6.126900      2.042300     5.619022   -0.472165   -5.554277
             2    0       8.169200      8.169200      0.000000    -0.093483   -5.433360    5.407687
             3    0       6.126900      2.042300      4.084600     1.009864   -0.010509   -5.968822
             4    0       8.169200      2.042300      8.169200     0.011234    5.433861    5.675137
             5    0       4.084600      0.000000      4.084600    -0.355521    0.144481   -0.163538
             6    0       6.126900      8.169200      8.169200     0.182210   -0.123265   -0.735533
             7    0       6.126900      6.126900      4.084600     0.391250   -0.052415   -0.491455
             8    0       6.126900      6.126900      2.042300    -5.626326    4.851372   -0.490412
             9    0       4.084600      0.000000      2.042300     0.966403    0.309992    0.072912
            10    0       0.000000      0.000000      0.000000    -1.105479    0.660264   -4.917569
            11    0       2.042300      2.042300      4.084600    -6.365788   -0.127835   -0.426178
            12    0       8.169200      2.042300      4.084600     4.959076    4.935751   -0.427703
            13    0       0.000000      2.042300      8.169200    -0.572066    0.683005    0.477190
            14    0       8.169200      2.042300      6.126900     0.261051    5.817077   -0.591067
            15    0       0.000000      2.042300      6.126900    -0.369030    0.913772   -5.455346
            16    0       2.042300      0.000000      4.084600    -5.879195    0.358511   -0.032893
            17    0       0.000000      0.000000      6.126900    -0.358365   -0.019918    0.071360
            18    0       2.042300      2.042300      0.000000    -0.263416    1.063122   -0.116347
            19    0       4.084600      2.042300      4.084600     0.328722    0.826034   -0.610633
            20    0       6.126900      8.169200      4.084600     0.623609   -0.034650   -5.413603
            21    0       6.126900      8.169200      0.000000     0.889151   -0.609865    5.828810
            22    0       0.000000      4.084600      6.126900    -4.885459   -0.198323    0.304157
            23    0       6.126900      2.042300      0.000000     6.277959    0.466249    5.601075
            24    0       4.084600      6.126900      4.084600    -0.048359   -0.607221   -5.397321
            25    0       8.169200      0.000000      4.084600     5.168726   -0.093069   -5.605668
            26    0       0.000000      4.084600      2.042300    -5.336645    5.938539   -0.206512
            27    0       2.042300      0.000000      0.000000    -0.508758    0.366102   -0.637450
            28    0       2.042300      4.084600      4.084600    -5.675531    0.023280    0.349839
            29    0       4.084600      4.084600      0.000000    -0.113798    0.682877   -0.537116
            30    0       6.126900      0.000000      8.169200     0.109741    0.152359   -0.069927
            31    0       6.126900      0.000000      4.084600     1.034847   -0.030787   -1.775451
            32    0       2.042300      0.000000      8.169200    -5.923451    0.147315   -0.021336
            33    0       2.042300      8.169200      0.000000    -1.099501   -0.455214    0.441349
            34    0       2.042300      6.126900      4.084600    -0.266028   -0.798487   -1.226852
            35    0       2.042300      4.084600      2.042300    -0.428176    1.135994   -0.377801
            36    0       0.000000      8.169200      0.000000    -0.414258   -0.942703    5.113199
            37    0       4.084600      8.169200      2.042300     6.048234   -6.214503   -0.254168
            38    0       8.169200      6.126900      4.084600     0.506587   -5.271769    4.639344
            39    0       0.000000      2.042300      2.042300    -0.744146    0.343862    5.205692
            40    0       4.084600      0.000000      0.000000     0.117098    0.193305    0.150147
            41    0       6.126900      6.126900      0.000000     4.890164   -0.081257   -0.038876
            42    0       6.126900      4.084600      6.126900     0.280063    0.161464    5.143813
            43    0       0.000000      0.000000      2.042300    -5.814977   -4.957301    5.645378
            44    0       0.000000      6.126900      6.126900    -6.163677   -0.691353   -0.007761
            45    0       4.084600      2.042300      6.126900    -0.067558    6.130092   -0.017294
            46    0       2.042300      4.084600      6.126900     4.495697    0.261353    5.552236
            47    0       8.169200      2.042300      2.042300    -5.514634    0.138214   -5.045166
            48    0       6.126900      2.042300      6.126900     0.012555    1.396768    0.313099
            49    0       4.084600      2.042300      8.169200     0.112572    1.391017   -0.356740
            50    0       8.169200      0.000000      0.000000     0.112187    5.930230    5.433410
            51    0       2.042300      2.042300      8.169200    -0.498267    5.141307   -0.055183
            52    0       2.042300      6.126900      2.042300    -0.546352   -0.308513    0.054949
            53    0       4.084600      0.000000      8.169200    -0.395955   -0.476526   -0.231005
            54    0       0.000000      6.126900      8.169200    -0.929775   -5.649768    0.295858
            55    0       4.084600      4.084600      2.042300     0.279975    5.383265    0.842665
            56    0       0.000000      8.169200      8.169200    -0.001579    5.387717   -0.145605
            57    0       2.042300      6.126900      6.126900     0.835511   -1.071323    0.703556
            58    0       8.169200      8.169200      4.084600     0.101239    0.230026   -0.475468
            59    0       2.042300      6.126900      0.000000    -0.088611   -1.466395    0.458862
            60    0       6.126900      0.000000      6.126900     0.686313   -0.527278    0.298687
            61    0       6.126900      0.000000      0.000000     1.427979    0.590549    1.781229
            62    0       2.042300      0.000000      6.126900    -1.073354   -0.040003    0.414024
            63    0       6.126900      6.126900      6.126900     5.599115   -0.706945    0.912508
            64    0       2.042300      8.169200      2.042300    -5.893722   -1.006243    0.098022
            65    0       4.084600      4.084600      8.169200     0.372093    5.808014   -5.658953
            66    0       2.042300      0.000000      2.042300    -1.304560    0.007286    0.402536
            67    0       0.000000      6.126900      4.084600    -0.410469   -5.531893   -6.022738
            68    0       2.042300      2.042300      6.126900    -0.006800    1.156180    0.227240
            69    0       8.169200      6.126900      8.169200    -0.205882   -4.981355   -0.150807
            70    0       8.169200      8.169200      8.169200     0.261094   -0.600557   -5.646068
            71    0       6.126900      2.042300      8.169200     0.768941    6.090660    0.770294
            72    0       2.042300      6.126900      8.169200     5.440969   -5.860891    0.190809
            73    0       2.042300      8.169200      8.169200    -0.231751    0.004081   -0.322598
            74    0       6.126900      8.169200      6.126900     5.925512   -0.556240    0.171882
            75    0       6.126900      4.084600      0.000000     0.645689   -0.307382   -4.980851
            76    0       4.084600      8.169200      4.084600     0.621793   -0.681554   -0.697543
            77    0       4.084600      8.169200      0.000000     0.728005   -1.041410    0.112587
            78    0       4.084600      4.084600      4.084600     0.215143    0.560134    5.055088
            79    0       0.000000      6.126900      0.000000    -5.388141   -6.218296    6.323440
            80    0       6.126900      6.126900      8.169200    -4.383501   -6.115014    0.222809
            81    0       6.126900      4.084600      4.084600     5.747180   -0.371975   -0.181524
            82    0       2.042300      8.169200      4.084600    -1.156768    0.374542   -0.409777
            83    0       8.169200      0.000000      8.169200     5.427703    0.136339   -0.004583
            84    0       4.084600      6.126900      6.126900     0.418921   -5.807673    5.731029
            85    0       4.084600      2.042300      0.000000     0.572160    0.783801    0.927872
            86    0       4.084600      2.042300      2.042300     6.052242    0.500258    0.080585