 100 100   0   0
  0.1064800E+02  0.1021150E-08  0.1021150E-08  0.1021150E-08  0.5000000E-15
  1.000000000000000E-004
  CAR 
 unknown system                          
     21.03688059     -6.08315280  301     14.18441247      1.00000000
     -6.083  0.0000E+00  0.0000E+00  0.0000E+00  0.0000E+00
     -5.993  0.0000E+00  0.0000E+00  0.0000E+00  0.0000E+00
     -5.902  0.0000E+00  0.0000E+00  0.0000E+00  0.0000E+00
     -5.812  0.0000E+00  0.0000E+00  0.0000E+00  0.0000E+00
     -5.722  0.0000E+00  0.0000E+00  0.0000E+00  0.0000E+00
     -5.631  0.0000E+00  0.0000E+00  0.0000E+00  0.0000E+00
     -5.541  0.0000E+00  0.0000E+00  0.0000E+00  0.0000E+00
     -5.450  0.0000E+00  0.0000E+00  0.0000E+00  0.0000E+00
     -5.360  0.0000E+00  0.0000E+00  0.0000E+00  0.0000E+00
     -5.270  0.0000E+00  0.0000E+00  0.0000E+00  0.0000E+00
     -5.179  0.0000E+00  0.0000E+00  0.0000E+00  0.0000E+00
     -5.089  0.8705E-10  0.8587E-10  0.7869E-11  0.7763E-11
     -4.998  0.1584E-03  0.1570E-03  0.1432E-04  0.1420E-04
     -4.908  0.5735E+00  0.5711E+00  0.5186E-01  0.5165E-01
     -4.818  0.8539E+01  0.8535E+01  0.8238E+00  0.8232E+00
     -4.727  0.1947E+01  0.1953E+01  0.9998E+00  0.9998E+00
     -4.637  0.2705E-02  0.2725E-02  0.1000E+01  0.1000E+01
     -4.546  0.8337E-08  0.8440E-08  0.1000E+01  0.1000E+01
     -4.456  0.0000E+00  0.0000E+00  0.1000E+01  0.1000E+01
     -4.366  0.0000E+00  0.0000E+00  0.1000E+01  0.1000E+01
     -4.275  0.0000E+00  0.0000E+00  0.1000E+01  0.1000E+01
     -4.185  0.0000E+00  0.0000E+00  0.1000E+01  0.1000E+01
     -4.094  0.0000E+00  0.0000E+00  0.1000E+01  0.1000E+01
     -4.004  0.0000E+00  0.0000E+00  0.1000E+01  0.1000E+01
     -3.914  0.9038E-08  0.8918E-08  0.1000E+01  0.1000E+01
     -3.823  0.2840E-02  0.2817E-02  0.1000E+01  0.1000E+01
     -3.733  0.1984E+01  0.1978E+01  0.1180E+01  0.1179E+01
     -3.642  0.8569E+01  0.8573E+01  0.1954E+01  0.1954E+01
     -3.552  0.5915E+01  0.5906E+01  0.2489E+01  0.2488E+01
     -3.462  0.1020E+02  0.1020E+02  0.3411E+01  0.3410E+01
     -3.371  0.6414E+01  0.6424E+01  0.3991E+01  0.3990E+01
     -3.281  0.1049E+00  0.1056E+00  0.4000E+01  0.4000E+01
     -3.190  0.5365E-05  0.5430E-05  0.4000E+01  0.4000E+01
     -3.100  0.1451E-01  0.1442E-01  0.4001E+01  0.4001E+01
     -3.010  0.3589E+01  0.3581E+01  0.4326E+01  0.4325E+01
     -2.919  0.7563E+01  0.7568E+01  0.5009E+01  0.5009E+01
     -2.829  0.8038E+01  0.8029E+01  0.5736E+01  0.5735E+01
     -2.738  0.2912E+01  0.2924E+01  0.5999E+01  0.5999E+01
     -2.648  0.6817E-01  0.6776E-01  0.6005E+01  0.6005E+01
     -2.558  0.5518E+01  0.5506E+01  0.6504E+01  0.6503E+01
     -2.467  0.5427E+01  0.5439E+01  0.6995E+01  0.6995E+01
     -2.377  0.5676E-01  0.5724E-01  0.7000E+01  0.7000E+01
     -2.286  0.5408E+00  0.5383E+00  0.7049E+01  0.7049E+01
     -2.196  0.8637E+01  0.8632E+01  0.7830E+01  0.7829E+01
     -2.106  0.8942E+01  0.8936E+01  0.8638E+01  0.8637E+01
     -2.015  0.9115E+01  0.9115E+01  0.9462E+01  0.9461E+01
     -1.925  0.5875E+01  0.5888E+01  0.9993E+01  0.9993E+01
     -1.834  0.6068E+00  0.6041E+00  0.1005E+02  0.1005E+02
     -1.744  0.8483E+01  0.8477E+01  0.1081E+02  0.1081E+02
     -1.654  0.5957E+01  0.5949E+01  0.1135E+02  0.1135E+02
     -1.563  0.1642E+02  0.1643E+02  0.1284E+02  0.1284E+02
     -1.473  0.1815E+01  0.1826E+01  0.1300E+02  0.1300E+02
     -1.382  0.4269E+01  0.4258E+01  0.1339E+02  0.1339E+02
     -1.292  0.6642E+01  0.6653E+01  0.1399E+02  0.1399E+02
     -1.202  0.4948E+00  0.4931E+00  0.1403E+02  0.1403E+02
     -1.111  0.8091E+01  0.8083E+01  0.1476E+02  0.1476E+02
     -1.021  0.2637E+01  0.2648E+01  0.1500E+02  0.1500E+02
     -0.930  0.4922E+01  0.4906E+01  0.1545E+02  0.1545E+02
     -0.840  0.7054E+01  0.7063E+01  0.1609E+02  0.1609E+02
     -0.750  0.9213E+01  0.9211E+01  0.1692E+02  0.1692E+02
     -0.659  0.9022E+01  0.9018E+01  0.1773E+02  0.1773E+02
     -0.569  0.2932E+01  0.2946E+01  0.1800E+02  0.1800E+02
     -0.478  0.3325E+00  0.3295E+00  0.1803E+02  0.1803E+02
     -0.388  0.7943E+01  0.7931E+01  0.1875E+02  0.1875E+02
     -0.298  0.2945E+01  0.2959E+01  0.1901E+02  0.1901E+02
     -0.207  0.6964E+01  0.6952E+01  0.1964E+02  0.1964E+02
     -0.117  0.3928E+01  0.3942E+01  0.2000E+02  0.2000E+02
     -0.026  0.1039E+01  0.1032E+01  0.2009E+02  0.2009E+02
      0.064  0.8832E+01  0.8831E+01  0.2089E+02  0.2089E+02
      0.154  0.1220E+01  0.1228E+01  0.2100E+02  0.2100E+02
      0.245  0.3327E+01  0.3311E+01  0.2130E+02  0.2130E+02
      0.335  0.7596E+01  0.7608E+01  0.2199E+02  0.2199E+02
      0.426  0.6532E+01  0.6521E+01  0.2258E+02  0.2258E+02
      0.516  0.4825E+01  0.4836E+01  0.2301E+02  0.2301E+02
      0.606  0.9540E+01  0.9520E+01  0.2388E+02  0.2388E+02
      0.697  0.1902E+02  0.1903E+02  0.2560E+02  0.2560E+02
      0.787  0.4948E+01  0.4963E+01  0.2604E+02  0.2604E+02
      0.878  0.9286E+01  0.9275E+01  0.2688E+02  0.2688E+02
      0.968  0.1088E+02  0.1089E+02  0.2787E+02  0.2787E+02
      1.058  0.3162E+01  0.3161E+01  0.2815E+02  0.2815E+02
      1.149  0.1275E+02  0.1274E+02  0.2931E+02  0.2930E+02
      1.239  0.7531E+01  0.7547E+01  0.2999E+02  0.2999E+02
      1.330  0.1594E+01  0.1588E+01  0.3013E+02  0.3013E+02
      1.420  0.8776E+01  0.8779E+01  0.3092E+02  0.3092E+02
      1.510  0.8372E+00  0.8422E+00  0.3100E+02  0.3100E+02
      1.601  0.1759E+01  0.1751E+01  0.3116E+02  0.3116E+02
      1.691  0.1424E+02  0.1423E+02  0.3245E+02  0.3244E+02
      1.782  0.6253E+01  0.6273E+01  0.3301E+02  0.3301E+02
      1.872  0.8183E+01  0.8170E+01  0.3375E+02  0.3375E+02
      1.962  0.1354E+02  0.1354E+02  0.3498E+02  0.3497E+02
      2.053  0.1195E+02  0.1195E+02  0.3606E+02  0.3605E+02
      2.143  0.1846E+02  0.1844E+02  0.3772E+02  0.3772E+02
      2.234  0.1612E+02  0.1614E+02  0.3918E+02  0.3918E+02
      2.324  0.1415E+02  0.1415E+02  0.4046E+02  0.4046E+02
      2.414  0.9841E+01  0.9845E+01  0.4135E+02  0.4135E+02
      2.505  0.7294E+01  0.7304E+01  0.4201E+02  0.4201E+02
      2.595  0.8168E+01  0.8156E+01  0.4275E+02  0.4275E+02
      2.686  0.1352E+02  0.1351E+02  0.4397E+02  0.4397E+02
      2.776  0.1169E+02  0.1171E+02  0.4503E+02  0.4503E+02
      2.866  0.9670E+01  0.9663E+01  0.4590E+02  0.4590E+02
      2.957  0.1798E+02  0.1796E+02  0.4753E+02  0.4752E+02
      3.047  0.1502E+02  0.1504E+02  0.4888E+02  0.4888E+02
      3.138  0.3110E+01  0.3106E+01  0.4916E+02  0.4916E+02
      3.228  0.1474E+02  0.1473E+02  0.5050E+02  0.5050E+02
      3.318  0.1284E+02  0.1284E+02  0.5166E+02  0.5166E+02
      3.409  0.1423E+02  0.1425E+02  0.5294E+02  0.5294E+02
      3.499  0.2516E+01  0.2510E+01  0.5317E+02  0.5317E+02
      3.590  0.9960E+01  0.9956E+01  0.5407E+02  0.5407E+02
      3.680  0.1654E+02  0.1653E+02  0.5557E+02  0.5557E+02
      3.770  0.1053E+02  0.1053E+02  0.5652E+02  0.5652E+02
      3.861  0.9400E+01  0.9397E+01  0.5737E+02  0.5737E+02
      3.951  0.1647E+02  0.1646E+02  0.5886E+02  0.5886E+02
      4.042  0.1675E+02  0.1675E+02  0.6037E+02  0.6037E+02
      4.132  0.1704E+02  0.1706E+02  0.6191E+02  0.6191E+02
      4.222  0.2411E+01  0.2411E+01  0.6213E+02  0.6213E+02
      4.313  0.8786E+01  0.8788E+01  0.6292E+02  0.6292E+02
      4.403  0.3531E+01  0.3526E+01  0.6324E+02  0.6324E+02
      4.494  0.8043E+01  0.8052E+01  0.6397E+02  0.6397E+02
      4.584  0.4499E+01  0.4483E+01  0.6438E+02  0.6438E+02
      4.674  0.8673E+01  0.8678E+01  0.6516E+02  0.6516E+02
      4.765  0.8730E+01  0.8738E+01  0.6595E+02  0.6595E+02
      4.855  0.5482E+01  0.5470E+01  0.6645E+02  0.6644E+02
      4.946  0.9598E+01  0.9599E+01  0.6731E+02  0.6731E+02
      5.036  0.8857E+01  0.8862E+01  0.6811E+02  0.6811E+02
      5.126  0.1531E+02  0.1530E+02  0.6950E+02  0.6950E+02
      5.217  0.8904E+01  0.8911E+01  0.7030E+02  0.7030E+02
      5.307  0.7817E+01  0.7829E+01  0.7101E+02  0.7101E+02
      5.398  0.8228E+01  0.8217E+01  0.7175E+02  0.7175E+02
      5.488  0.6378E+01  0.6371E+01  0.7233E+02  0.7233E+02
      5.578  0.1965E+02  0.1965E+02  0.7411E+02  0.7411E+02
      5.669  0.1145E+02  0.1146E+02  0.7514E+02  0.7514E+02
      5.759  0.1041E+02  0.1042E+02  0.7608E+02  0.7608E+02
      5.850  0.9433E+01  0.9442E+01  0.7694E+02  0.7694E+02
      5.940  0.7192E+01  0.7181E+01  0.7759E+02  0.7759E+02
      6.030  0.6360E+01  0.6369E+01  0.7816E+02  0.7816E+02
      6.121  0.8644E+01  0.8649E+01  0.7894E+02  0.7894E+02
      6.211  0.2547E+01  0.2539E+01  0.7917E+02  0.7917E+02
      6.302  0.1280E+02  0.1280E+02  0.8033E+02  0.8033E+02
      6.392  0.9299E+01  0.9308E+01  0.8117E+02  0.8117E+02
      6.482  0.1126E+02  0.1125E+02  0.8219E+02  0.8219E+02
      6.573  0.9352E+01  0.9359E+01  0.8303E+02  0.8303E+02
      6.663  0.1501E+02  0.1499E+02  0.8439E+02  0.8439E+02
      6.754  0.1291E+02  0.1293E+02  0.8556E+02  0.8556E+02
      6.844  0.1112E+02  0.1112E+02  0.8656E+02  0.8656E+02
      6.934  0.1292E+02  0.1292E+02  0.8773E+02  0.8773E+02
      7.025  0.1274E+02  0.1273E+02  0.8888E+02  0.8888E+02
      7.115  0.1194E+02  0.1195E+02  0.8996E+02  0.8996E+02
      7.206  0.1337E+02  0.1335E+02  0.9117E+02  0.9117E+02
      7.296  0.1742E+02  0.1743E+02  0.9275E+02  0.9275E+02
      7.386  0.1077E+02  0.1077E+02  0.9372E+02  0.9372E+02
      7.477  0.1201E+02  0.1201E+02  0.9481E+02  0.9481E+02
      7.567  0.1836E+02  0.1835E+02  0.9647E+02  0.9646E+02
      7.658  0.1801E+02  0.1802E+02  0.9810E+02  0.9809E+02
      7.748  0.1876E+02  0.1876E+02  0.9979E+02  0.9979E+02
      7.838  0.1801E+02  0.1798E+02  0.1014E+03  0.1014E+03
      7.929  0.1934E+02  0.1937E+02  0.1032E+03  0.1032E+03
      8.019  0.1625E+02  0.1625E+02  0.1046E+03  0.1046E+03
      8.110  0.9350E+01  0.9357E+01  0.1055E+03  0.1055E+03
      8.200  0.6951E+01  0.6956E+01  0.1061E+03  0.1061E+03
      8.290  0.1924E+02  0.1922E+02  0.1078E+03  0.1078E+03
      8.381  0.1525E+02  0.1527E+02  0.1092E+03  0.1092E+03
      8.471  0.1449E+02  0.1448E+02  0.1105E+03  0.1105E+03
      8.562  0.1897E+02  0.1895E+02  0.1123E+03  0.1122E+03
      8.652  0.2343E+02  0.2343E+02  0.1144E+03  0.1144E+03
      8.742  0.2110E+02  0.2110E+02  0.1163E+03  0.1163E+03
      8.833  0.2635E+02  0.2636E+02  0.1187E+03  0.1187E+03
      8.923  0.1375E+02  0.1375E+02  0.1199E+03  0.1199E+03
      9.014  0.1450E+02  0.1450E+02  0.1212E+03  0.1212E+03
      9.104  0.2660E+02  0.2658E+02  0.1236E+03  0.1236E+03
      9.194  0.2217E+02  0.2219E+02  0.1256E+03  0.1256E+03
      9.285  0.1457E+02  0.1457E+02  0.1269E+03  0.1269E+03
      9.375  0.1517E+02  0.1517E+02  0.1283E+03  0.1283E+03
      9.466  0.8000E+01  0.8018E+01  0.1290E+03  0.1290E+03
      9.556  0.1245E+02  0.1243E+02  0.1302E+03  0.1302E+03
      9.646  0.1238E+02  0.1240E+02  0.1313E+03  0.1313E+03
      9.737  0.1721E+02  0.1720E+02  0.1328E+03  0.1328E+03
      9.827  0.2263E+02  0.2262E+02  0.1349E+03  0.1349E+03
      9.918  0.2255E+02  0.2256E+02  0.1369E+03  0.1369E+03
     10.008  0.1268E+02  0.1269E+02  0.1381E+03  0.1381E+03
     10.098  0.1176E+02  0.1175E+02  0.1391E+03  0.1391E+03
     10.189  0.1560E+02  0.1559E+02  0.1405E+03  0.1405E+03
     10.279  0.1621E+02  0.1622E+02  0.1420E+03  0.1420E+03
     10.370  0.1097E+02  0.1100E+02  0.1430E+03  0.1430E+03
     10.460  0.1249E+02  0.1246E+02  0.1441E+03  0.1441E+03
     10.550  0.1228E+02  0.1230E+02  0.1452E+03  0.1452E+03
     10.641  0.2113E+02  0.2110E+02  0.1471E+03  0.1471E+03
     10.731  0.1733E+02  0.1735E+02  0.1487E+03  0.1487E+03
     10.822  0.1803E+02  0.1802E+02  0.1503E+03  0.1503E+03
     10.912  0.1212E+02  0.1213E+02  0.1514E+03  0.1514E+03
     11.002  0.1685E+02  0.1685E+02  0.1530E+03  0.1530E+03
     11.093  0.1620E+02  0.1621E+02  0.1544E+03  0.1544E+03
     11.183  0.9424E+01  0.9431E+01  0.1553E+03  0.1553E+03
     11.274  0.9899E+01  0.9895E+01  0.1562E+03  0.1562E+03
     11.364  0.1845E+02  0.1844E+02  0.1578E+03  0.1578E+03
     11.454  0.1518E+02  0.1518E+02  0.1592E+03  0.1592E+03
     11.545  0.1775E+02  0.1776E+02  0.1608E+03  0.1608E+03
     11.635  0.1451E+02  0.1450E+02  0.1621E+03  0.1621E+03
     11.726  0.2009E+02  0.2010E+02  0.1639E+03  0.1639E+03
     11.816  0.1480E+02  0.1479E+02  0.1653E+03  0.1653E+03
     11.906  0.1751E+02  0.1751E+02  0.1669E+03  0.1669E+03
     11.997  0.1879E+02  0.1880E+02  0.1686E+03  0.1686E+03
     12.087  0.1066E+02  0.1067E+02  0.1695E+03  0.1695E+03
     12.178  0.1582E+02  0.1581E+02  0.1710E+03  0.1710E+03
     12.268  0.2046E+02  0.2046E+02  0.1728E+03  0.1728E+03
     12.358  0.2072E+02  0.2072E+02  0.1747E+03  0.1747E+03
     12.449  0.1853E+02  0.1854E+02  0.1764E+03  0.1764E+03
     12.539  0.1657E+02  0.1659E+02  0.1779E+03  0.1779E+03
     12.630  0.9102E+01  0.9081E+01  0.1787E+03  0.1787E+03
     12.720  0.2385E+02  0.2384E+02  0.1808E+03  0.1808E+03
     12.810  0.1255E+02  0.1258E+02  0.1820E+03  0.1820E+03
     12.901  0.1008E+02  0.1004E+02  0.1829E+03  0.1829E+03
     12.991  0.1836E+02  0.1837E+02  0.1845E+03  0.1845E+03
     13.082  0.1487E+02  0.1489E+02  0.1859E+03  0.1859E+03
     13.172  0.8164E+01  0.8148E+01  0.1866E+03  0.1866E+03
     13.262  0.1785E+02  0.1784E+02  0.1882E+03  0.1882E+03
     13.353  0.8350E+01  0.8386E+01  0.1890E+03  0.1890E+03
     13.443  0.2438E+01  0.2421E+01  0.1892E+03  0.1892E+03
     13.534  0.1769E+02  0.1769E+02  0.1908E+03  0.1908E+03
     13.624  0.7798E+01  0.7799E+01  0.1915E+03  0.1915E+03
     13.714  0.6003E+01  0.6014E+01  0.1921E+03  0.1921E+03
     13.805  0.1558E+02  0.1556E+02  0.1935E+03  0.1935E+03
     13.895  0.1107E+02  0.1108E+02  0.1945E+03  0.1945E+03
     13.986  0.1749E+02  0.1746E+02  0.1960E+03  0.1960E+03
     14.076  0.2734E+02  0.2735E+02  0.1985E+03  0.1985E+03
     14.166  0.1316E+02  0.1313E+02  0.1997E+03  0.1997E+03
     14.257  0.2070E+02  0.2070E+02  0.2016E+03  0.2016E+03
     14.347  0.1497E+02  0.1501E+02  0.2029E+03  0.2029E+03
     14.438  0.1173E+02  0.1173E+02  0.2040E+03  0.2040E+03
     14.528  0.1347E+02  0.1347E+02  0.2052E+03  0.2052E+03
     14.618  0.2909E+02  0.2906E+02  0.2078E+03  0.2078E+03
     14.709  0.2021E+02  0.2024E+02  0.2097E+03  0.2097E+03
     14.799  0.1193E+02  0.1192E+02  0.2107E+03  0.2107E+03
     14.890  0.2181E+02  0.2182E+02  0.2127E+03  0.2127E+03
     14.980  0.1343E+02  0.1344E+02  0.2139E+03  0.2139E+03
     15.070  0.1598E+02  0.1596E+02  0.2154E+03  0.2154E+03
     15.161  0.2125E+02  0.2125E+02  0.2173E+03  0.2173E+03
     15.251  0.2692E+02  0.2691E+02  0.2197E+03  0.2197E+03
     15.342  0.1940E+02  0.1941E+02  0.2215E+03  0.2215E+03
     15.432  0.1817E+02  0.1818E+02  0.2231E+03  0.2231E+03
     15.522  0.2118E+02  0.2117E+02  0.2250E+03  0.2250E+03
     15.613  0.1748E+02  0.1749E+02  0.2266E+03  0.2266E+03
     15.703  0.2381E+02  0.2379E+02  0.2288E+03  0.2288E+03
     15.794  0.2964E+02  0.2964E+02  0.2315E+03  0.2315E+03
     15.884  0.2089E+02  0.2092E+02  0.2333E+03  0.2333E+03
     15.974  0.9543E+01  0.9547E+01  0.2342E+03  0.2342E+03
     16.065  0.1938E+02  0.1935E+02  0.2360E+03  0.2360E+03
     16.155  0.1801E+02  0.1802E+02  0.2376E+03  0.2376E+03
     16.246  0.1920E+02  0.1919E+02  0.2393E+03  0.2393E+03
     16.336  0.2482E+02  0.2482E+02  0.2416E+03  0.2416E+03
     16.426  0.1894E+02  0.1897E+02  0.2433E+03  0.2433E+03
     16.517  0.9401E+01  0.9407E+01  0.2441E+03  0.2441E+03
     16.607  0.2332E+02  0.2329E+02  0.2462E+03  0.2462E+03
     16.698  0.1303E+02  0.1304E+02  0.2474E+03  0.2474E+03
     16.788  0.2629E+02  0.2627E+02  0.2498E+03  0.2498E+03
     16.878  0.1599E+02  0.1601E+02  0.2512E+03  0.2512E+03
     16.969  0.2152E+02  0.2150E+02  0.2532E+03  0.2532E+03
     17.059  0.1841E+02  0.1842E+02  0.2548E+03  0.2548E+03
     17.150  0.1359E+02  0.1359E+02  0.2561E+03  0.2561E+03
     17.240  0.2377E+02  0.2373E+02  0.2582E+03  0.2582E+03
     17.330  0.2721E+02  0.2724E+02  0.2607E+03  0.2607E+03
     17.421  0.1585E+02  0.1583E+02  0.2621E+03  0.2621E+03
     17.511  0.2308E+02  0.2309E+02  0.2642E+03  0.2642E+03
     17.602  0.2448E+02  0.2447E+02  0.2664E+03  0.2664E+03
     17.692  0.1237E+02  0.1238E+02  0.2675E+03  0.2675E+03
     17.782  0.1371E+02  0.1369E+02  0.2688E+03  0.2688E+03
     17.873  0.1397E+02  0.1400E+02  0.2700E+03  0.2700E+03
     17.963  0.1812E+02  0.1808E+02  0.2717E+03  0.2717E+03
     18.054  0.1854E+02  0.1856E+02  0.2733E+03  0.2733E+03
     18.144  0.1794E+02  0.1791E+02  0.2750E+03  0.2750E+03
     18.234  0.2960E+02  0.2962E+02  0.2776E+03  0.2776E+03
     18.325  0.1312E+02  0.1314E+02  0.2788E+03  0.2788E+03
     18.415  0.1385E+02  0.1383E+02  0.2801E+03  0.2801E+03
     18.506  0.1902E+02  0.1904E+02  0.2818E+03  0.2818E+03
     18.596  0.1312E+02  0.1309E+02  0.2830E+03  0.2830E+03
     18.686  0.2669E+02  0.2669E+02  0.2854E+03  0.2854E+03
     18.777  0.1456E+02  0.1458E+02  0.2867E+03  0.2867E+03
     18.867  0.1322E+02  0.1320E+02  0.2879E+03  0.2879E+03
     18.958  0.2663E+02  0.2663E+02  0.2903E+03  0.2903E+03
     19.048  0.1605E+02  0.1608E+02  0.2918E+03  0.2918E+03
     19.138  0.1602E+02  0.1596E+02  0.2932E+03  0.2932E+03
     19.229  0.2344E+02  0.2335E+02  0.2953E+03  0.2953E+03
     19.319  0.2341E+02  0.2494E+02  0.2975E+03  0.2976E+03
     19.410  0.1945E+02  0.1771E+02  0.2992E+03  0.2992E+03
     19.500  0.1138E+02  0.1053E+02  0.3002E+03  0.3001E+03
     19.590  0.1588E+02  0.1450E+02  0.3017E+03  0.3014E+03
     19.681  0.9708E+01  0.1368E+02  0.3026E+03  0.3027E+03
     19.771  0.9199E+01  0.5468E+01  0.3034E+03  0.3032E+03
     19.862  0.6628E+01  0.8552E+01  0.3040E+03  0.3039E+03
     19.952  0.1231E+00  0.5735E+00  0.3040E+03  0.3040E+03
     20.042  0.7081E-05  0.1584E-03  0.3040E+03  0.3040E+03
     20.133  0.7541E-12  0.8705E-10  0.3040E+03  0.3040E+03
     20.223  0.0000E+00  0.0000E+00  0.3040E+03  0.3040E+03
     20.314  0.0000E+00  0.0000E+00  0.3040E+03  0.3040E+03
     20.404  0.0000E+00  0.0000E+00  0.3040E+03  0.3040E+03
     20.494  0.0000E+00  0.0000E+00  0.3040E+03  0.3040E+03
     20.585  0.0000E+00  0.0000E+00  0.3040E+03  0.3040E+03
     20.675  0.0000E+00  0.0000E+00  0.3040E+03  0.3040E+03
     20.766  0.0000E+00  0.0000E+00  0.3040E+03  0.3040E+03
     20.856  0.0000E+00  0.0000E+00  0.3040E+03  0.3040E+03
     20.946  0.0000E+00  0.0000E+00  0.3040E+03  0.3040E+03
     21.037  0.0000E+00  0.0000E+00  0.3040E+03  0.3040E+03
