       N       E                     dE             d eps       ncg     rms          rms(c)
DAV:   1     0.922628863642E+03    0.92263E+03   -0.10416E+05  1216   0.635E+02
DAV:   2    -0.205680612988E+03   -0.11283E+04   -0.10562E+04  1504   0.155E+02
DAV:   3    -0.266143659418E+03   -0.60463E+02   -0.57768E+02  1504   0.317E+01
DAV:   4    -0.267567144917E+03   -0.14235E+01   -0.14040E+01  1568   0.499E+00
DAV:   5    -0.267600988011E+03   -0.33843E-01   -0.33722E-01  1488   0.704E-01    0.813E+01
RMM:   6    -0.250579641512E+03    0.17021E+02   -0.95457E+01  1383   0.736E+00    0.510E+01
RMM:   7    -0.249789026031E+03    0.79062E+00   -0.15494E+01  1287   0.359E+00    0.304E+01
RMM:   8    -0.251992689081E+03   -0.22037E+01   -0.54470E+00  1358   0.235E+00    0.520E+00
RMM:   9    -0.252182353917E+03   -0.18966E+00   -0.91883E-01  1423   0.110E+00    0.228E+00
RMM:  10    -0.252197095152E+03   -0.14741E-01   -0.18990E-01  1427   0.438E-01    0.128E+00
RMM:  11    -0.252217518186E+03   -0.20423E-01   -0.47564E-02  1454   0.218E-01    0.722E-01
RMM:  12    -0.252226710541E+03   -0.91924E-02   -0.12875E-02  1466   0.122E-01    0.306E-01
RMM:  13    -0.252229181782E+03   -0.24712E-02   -0.34810E-03  1474   0.652E-02    0.128E-01
RMM:  14    -0.252229814088E+03   -0.63231E-03   -0.99941E-04  1464   0.351E-02    0.649E-02
RMM:  15    -0.252230016638E+03   -0.20255E-03   -0.34720E-04  1445   0.206E-02    0.361E-02
RMM:  16    -0.252230089109E+03   -0.72470E-04   -0.14346E-04  1425   0.134E-02    0.183E-02
RMM:  17    -0.252230103725E+03   -0.14617E-04   -0.41151E-05  1177   0.715E-03    0.800E-03
RMM:  18    -0.252230103974E+03   -0.24930E-06   -0.92052E-06   769   0.374E-03
   1 F= -.25223010E+03 E0= -.25220808E+03  d E =-.440502E-01  mag=     0.0041
