 vasp.5.4.4.18Apr17-6-g9f103f2a35 (build Sep 16 2020 16:20:45) complex          
  
 executed on             LinuxIFC date 2021.08.05  12:01:34
 running on   16 total cores
 distrk:  each k-point on   16 cores,    1 groups
 distr:  one band on NCORES_PER_BAND=   1 cores,   16 groups


--------------------------------------------------------------------------------------------------------


 INCAR:
 POTCAR:    PAW_PBE Si 05Jan2001                  

 ----------------------------------------------------------------------------- 
|                                                                             |
|           W    W    AA    RRRRR   N    N  II  N    N   GGGG   !!!           |
|           W    W   A  A   R    R  NN   N  II  NN   N  G    G  !!!           |
|           W    W  A    A  R    R  N N  N  II  N N  N  G       !!!           |
|           W WW W  AAAAAA  RRRRR   N  N N  II  N  N N  G  GGG   !            |
|           WW  WW  A    A  R   R   N   NN  II  N   NN  G    G                |
|           W    W  A    A  R    R  N    N  II  N    N   GGGG   !!!           |
|                                                                             |
|      For optimal performance we recommend to set                            |
|        NCORE= 4 - approx SQRT( number of cores)                             |
|      NCORE specifies how many cores store one orbital (NPAR=cpu/NCORE).     |
|      This setting can  greatly improve the performance of VASP for DFT.     |
|      The default,   NCORE=1            might be grossly inefficient         |
|      on modern multi-core architectures or massively parallel machines.     |
|      Do your own testing !!!!                                               |
|      Unfortunately you need to use the default for GW and RPA calculations. |
|      (for HF NCORE is supported but not extensively tested yet)             |
|                                                                             |
 ----------------------------------------------------------------------------- 

 POTCAR:    PAW_PBE Si 05Jan2001                  
   SHA256 =  79d9987ad8750f624c4d6acb2a16d13abf6a777132adc04dc6c8399be72b42bb Si
   COPYR  = (c) Copyright 05Jan2001 Georg Kresse                                
   COPYR  = This file is part of the software VASP. Any use, copying, and all ot
   COPYR  = If you do not have a valid VASP license, you may not use, copy or di
   VRHFIN =Si: s2p2                                                             
   LEXCH  = PE                                                                  
   EATOM  =   103.0669 eV,    7.5752 Ry                                         
                                                                                
   TITEL  = PAW_PBE Si 05Jan2001                                                
   LULTRA =        F    use ultrasoft PP ?                                      
   IUNSCR =        1    unscreen: 0-lin 1-nonlin 2-no                           
   RPACOR =    1.500    partial core radius                                     
   POMASS =   28.085; ZVAL   =    4.000    mass and valenz                      
   RCORE  =    1.900    outmost cutoff radius                                   
   RWIGS  =    2.480; RWIGS  =    1.312    wigner-seitz radius (au A)           
   ENMAX  =  245.345; ENMIN  =  184.009 eV                                      
   ICORE  =        2    local potential                                         
   LCOR   =        T    correct aug charges                                     
   LPAW   =        T    paw PP                                                  
   EAUG   =  322.069                                                            
   DEXC   =    0.000                                                            
   RMAX   =    1.950    core radius for proj-oper                               
   RAUG   =    1.300    factor for augmentation sphere                          
   RDEP   =    1.993    radius for radial grids                                 
   RDEPT  =    1.837    core radius for aug-charge                              
                                                                                
   Atomic configuration                                                         
    6 entries                                                                   
     n  l   j            E        occ.                                          
     1  0  0.50     -1785.8828   2.0000                                         
     2  0  0.50      -139.4969   2.0000                                         
     2  1  1.50       -95.5546   6.0000                                         
     3  0  0.50       -10.8127   2.0000                                         
     3  1  0.50        -4.0811   2.0000                                         
     3  2  1.50        -4.0817   0.0000                                         
   Description                                                                  
     l       E           TYP  RCUT    TYP  RCUT                                 
     0    -10.8127223     23  1.900                                             
     0     -7.6451159     23  1.900                                             
     1     -4.0811372     23  1.900                                             
     1      2.4879257     23  1.900                                             
     2     -4.0817478      7  1.900                                             
  local pseudopotential read in
  partial core-charges read in
  partial kinetic energy density read in
  atomic valenz-charges read in
  non local Contribution for L=           0  read in
    real space projection operators read in
  non local Contribution for L=           0  read in
    real space projection operators read in
  non local Contribution for L=           1  read in
    real space projection operators read in
  non local Contribution for L=           1  read in
    real space projection operators read in
    PAW grid and wavefunctions read in
 
   number of l-projection  operators is LMAX  =           4
   number of lm-projection operators is LMMAX =           8
 
 Optimization of the real space projectors (new method)

 maximal supplied QI-value         = 19.84
 optimisation between [QCUT,QGAM] = [  7.94, 15.87] = [ 17.64, 70.56] Ry 
 Optimized for a Real-space Cutoff    1.57 Angstroem

   l    n(q)    QCUT    max X(q) W(low)/X(q) W(high)/X(q)  e(spline) 
   0      7     7.937   159.560    0.16E-03    0.38E-03    0.13E-06
   0      7     7.937   115.863    0.15E-03    0.37E-03    0.13E-06
   1      7     7.937    88.339    0.42E-03    0.67E-03    0.13E-06
   1      7     7.937    48.592    0.41E-03    0.65E-03    0.13E-06
  PAW_PBE Si 05Jan2001                  :
 energy of atom  1       EATOM= -103.0669
 kinetic energy error for atom=    0.0056 (will be added to EATOM!!)
 
 
 POSCAR: Si100                                   
  positions in direct lattice
  velocities in cartesian coordinates
 exchange correlation table for  LEXCH =        8
   RHO(1)=    0.500       N(1)  =     2000
   RHO(2)=  100.500       N(2)  =     4000
 


--------------------------------------------------------------------------------------------------------


 ion  position               nearest neighbor table
   1  0.800  0.600  0.200-   8 2.04  38 2.04   7 2.89  58 2.89  41 2.89   2 2.89  67 2.89  92 2.89
                            79 2.89  26 2.89  94 2.89
   2  0.800  0.800  0.000-  21 2.04  36 2.04  50 2.04  70 2.04  41 2.89   6 2.89  61 2.89  69 2.89
                             1 2.89  79 2.89  10 2.89  56 2.89  83 2.89
   3  0.600  0.200  0.400-  12 2.04  81 2.04  31 2.04  48 2.04  19 2.04  47 2.89  92 2.89  14 2.89
                            78 2.89  42 2.89  86 2.89  90 2.89  25 2.89  60 2.89   5 2.89  45 2.89
   4  0.800  0.200  0.800-  14 2.04  71 2.04  13 2.04  83 2.04  48 2.89  15 2.89  23 2.89  30 2.89
                            88 2.89  94 2.89  50 2.89  96 2.89
   5  0.400  0.000  0.400-   9 2.04  16 2.04  19 2.04  31 2.04  76 2.04  91 2.04  66 2.89  11 2.89
                            37 2.89  82 2.89  86 2.89  90 2.89  62 2.89  60 2.89   3 2.89  20 2.89
   6  0.600  0.800  0.800-  70 2.04  74 2.04  80 2.04  30 2.04  21 2.04  89 2.04  63 2.89  69 2.89
                             2 2.89  41 2.89  83 2.89  60 2.89  93 2.89  61 2.89  77 2.89  53 2.89
   7  0.600  0.600  0.400-   8 2.04  20 2.04  38 2.04  24 2.04  63 2.04  81 2.04   1 2.89  58 2.89
                            76 2.89  74 2.89  92 2.89  42 2.89  84 2.89  78 2.89
   8  0.600  0.600  0.200-   1 2.04   7 2.04  41 2.04  92 2.04  20 2.89  38 2.89  21 2.89  24 2.89
                            81 2.89  37 2.89  55 2.89  87 2.89  75 2.89
   9  0.400  0.000  0.200-   5 2.04  66 2.04  40 2.04  37 2.04  86 2.04  90 2.04  16 2.89  64 2.89
                            31 2.89  76 2.89  19 2.89  27 2.89 100 2.89  61 2.89  77 2.89  85 2.89
  10  0.000  0.000  0.000-  27 2.04  36 2.04  43 2.04  50 2.04  96 2.04  33 2.89  13 2.89  39 2.89
                            18 2.89   2 2.89  56 2.89  66 2.89  83 2.89  32 2.89
  11  0.200  0.200  0.400-  19 2.04  28 2.04 100 2.04  68 2.04  16 2.04  78 2.89  86 2.89  35 2.89
                            66 2.89   5 2.89  39 2.89  45 2.89  46 2.89  62 2.89  15 2.89
  12  0.800  0.200  0.400-   3 2.04  47 2.04  25 2.04  14 2.04  81 2.89  31 2.89  48 2.89  39 2.89
                            15 2.89  88 2.89
  13  0.000  0.200  0.800-  15 2.04   4 2.04  51 2.04  96 2.04  22 2.89  17 2.89  68 2.89  14 2.89
                            18 2.89  10 2.89  83 2.89  32 2.89
  14  0.800  0.200  0.600-   4 2.04  48 2.04  15 2.04  12 2.04  88 2.04  71 2.89  42 2.89   3 2.89
                            60 2.89  22 2.89  83 2.89  13 2.89  17 2.89  25 2.89
  15  0.000  0.200  0.600-  13 2.04  22 2.04  17 2.04  14 2.04  68 2.04  46 2.89  51 2.89   4 2.89
                            12 2.89  62 2.89  11 2.89  88 2.89
  16  0.200  0.000  0.400-   5 2.04  66 2.04  62 2.04  11 2.04  82 2.04   9 2.89  64 2.89  43 2.89
                            76 2.89  19 2.89  91 2.89 100 2.89  17 2.89  95 2.89  99 2.89  68 2.89
  17  0.000  0.000  0.600-  15 2.04  62 2.04  88 2.04  98 2.04  13 2.89  83 2.89  32 2.89  56 2.89
                            68 2.89  14 2.89  16 2.89  95 2.89  25 2.89  99 2.89
  18  0.200  0.200  0.000-  85 2.04  97 2.04  27 2.04  96 2.04  51 2.04 100 2.04  29 2.89  86 2.89
                            49 2.89  35 2.89  40 2.89  39 2.89  13 2.89  32 2.89  10 2.89  66 2.89
  19  0.400  0.200  0.400-  11 2.04  78 2.04  86 2.04  45 2.04   5 2.04   3 2.04  28 2.89  55 2.89
                           100 2.89  16 2.89  81 2.89   9 2.89  68 2.89  31 2.89  91 2.89  48 2.89
  20  0.600  0.800  0.400-   7 2.04  58 2.04  31 2.04  74 2.04  76 2.04  38 2.89   8 2.89  24 2.89
                            63 2.89  37 2.89  25 2.89  90 2.89   5 2.89  60 2.89  93 2.89
  21  0.600  0.800  0.000-   2 2.04  41 2.04   6 2.04  61 2.04  77 2.04   8 2.89  70 2.89  50 2.89
                            80 2.89  87 2.89  37 2.89  40 2.89  30 2.89  89 2.89  90 2.89
  22  0.000  0.400  0.600-  15 2.04  44 2.04  46 2.04  13 2.89  14 2.89  54 2.89  68 2.89  57 2.89
                            67 2.89  28 2.89
  23  0.600  0.200  0.000-  75 2.04  71 2.04  61 2.04  85 2.04  94 2.89  29 2.89  47 2.89  50 2.89
                            92 2.89   4 2.89  30 2.89  86 2.89  90 2.89  49 2.89  40 2.89
  24  0.400  0.600  0.400-  34 2.04  76 2.04   7 2.04  78 2.04  84 2.04  52 2.89  82 2.89  37 2.89
                            57 2.89   8 2.89  20 2.89  28 2.89  55 2.89  93 2.89  81 2.89  63 2.89
  25  0.800  0.000  0.400-  31 2.04  12 2.04  58 2.04  88 2.04  90 2.89  47 2.89  20 2.89  60 2.89
                             3 2.89  43 2.89  14 2.89  17 2.89  95 2.89
  26  0.000  0.400  0.200-  39 2.04  35 2.04  28 2.89  47 2.89  67 2.89  96 2.89 100 2.89  79 2.89
                            94 2.89  52 2.89  97 2.89   1 2.89
  27  0.200  0.000  0.000-  40 2.04  18 2.04  32 2.04  33 2.04  10 2.04  66 2.04  53 2.89   9 2.89
                            77 2.89  85 2.89  64 2.89  43 2.89  73 2.89  51 2.89  36 2.89  96 2.89
  28  0.200  0.400  0.400-  11 2.04  35 2.04  78 2.04  46 2.04  34 2.04  55 2.89  19 2.89 100 2.89
                            26 2.89  68 2.89  24 2.89  52 2.89  22 2.89  57 2.89  67 2.89
  29  0.400  0.400  0.000-  85 2.04  97 2.04  75 2.04  55 2.04  87 2.04  65 2.04  18 2.89  49 2.89
                            23 2.89  86 2.89  59 2.89  35 2.89  92 2.89  41 2.89
  30  0.600  0.000  0.800-  60 2.04  83 2.04   6 2.04  61 2.04  71 2.04  53 2.04  88 2.89  70 2.89
                             4 2.89  74 2.89  48 2.89  50 2.89  91 2.89  21 2.89  49 2.89  23 2.89
  31  0.600  0.000  0.400-  25 2.04  90 2.04  20 2.04   3 2.04  60 2.04   5 2.04  58 2.89   9 2.89
                            88 2.89  12 2.89  74 2.89  76 2.89  19 2.89  48 2.89  91 2.89
  32  0.200  0.000  0.800-  53 2.04  62 2.04  27 2.04  51 2.04  73 2.04  91 2.89  49 2.89  68 2.89
                            17 2.89  89 2.89  40 2.89  99 2.89  18 2.89  13 2.89  33 2.89  56 2.89
  33  0.200  0.800  0.000-  59 2.04  77 2.04  27 2.04  64 2.04  73 2.04  36 2.04  87 2.89  72 2.89
                            52 2.89  37 2.89  79 2.89  40 2.89  89 2.89  32 2.89  66 2.89  56 2.89
  34  0.200  0.600  0.400-  24 2.04  52 2.04  82 2.04  57 2.04  67 2.04  28 2.04  76 2.89  64 2.89
                            78 2.89  35 2.89  84 2.89  95 2.89  99 2.89  44 2.89  46 2.89
  35  0.200  0.400  0.200-  28 2.04  55 2.04 100 2.04  26 2.04  97 2.04  52 2.04  86 2.89  11 2.89
                            78 2.89  34 2.89  39 2.89  18 2.89  29 2.89  59 2.89
  36  0.000  0.800  0.000-  79 2.04  10 2.04  33 2.04  56 2.04   2 2.04  59 2.89  54 2.89  43 2.89
                            50 2.89  64 2.89  70 2.89  73 2.89  27 2.89
  37  0.400  0.800  0.200-  64 2.04  76 2.04   9 2.04  77 2.04  52 2.89  24 2.89  82 2.89  20 2.89
                            66 2.89   8 2.89  33 2.89   5 2.89  87 2.89  40 2.89  21 2.89  90 2.89
  38  0.800  0.600  0.400-   1 2.04   7 2.04  58 2.04  67 2.04   8 2.89  20 2.89  63 2.89  81 2.89
                            95 2.89  44 2.89
  39  0.000  0.200  0.200-  26 2.04  43 2.04  47 2.04  96 2.04 100 2.04  11 2.89  35 2.89  12 2.89
                            66 2.89  10 2.89  18 2.89
  40  0.400  0.000  0.000-  27 2.04   9 2.04  53 2.04  61 2.04  77 2.04  85 2.04  32 2.89  66 2.89
                            33 2.89  18 2.89  30 2.89  23 2.89  21 2.89  37 2.89  49 2.89  86 2.89
  41  0.600  0.600  0.000-  21 2.04   8 2.04  75 2.04  80 2.04  87 2.04   2 2.89   1 2.89  77 2.89
                             6 2.89  69 2.89  94 2.89  92 2.89  29 2.89
  42  0.600  0.400  0.600-  48 2.04  63 2.04  81 2.04  71 2.89  14 2.89  65 2.89   3 2.89  80 2.89
                            45 2.89   7 2.89  78 2.89  84 2.89
  43  0.000  0.000  0.200-  10 2.04  39 2.04  66 2.04  16 2.89  25 2.89  95 2.89  47 2.89  50 2.89
                            64 2.89  36 2.89  27 2.89  96 2.89 100 2.89
  44  0.000  0.600  0.600-  54 2.04  98 2.04  57 2.04  67 2.04  22 2.04  56 2.89  72 2.89  95 2.89
                            69 2.89  99 2.89  34 2.89  38 2.89  46 2.89
  45  0.400  0.200  0.600-  49 2.04  68 2.04  19 2.04  48 2.04  91 2.04  65 2.89  46 2.89  51 2.89
                            62 2.89  11 2.89  42 2.89  71 2.89  78 2.89  53 2.89   3 2.89   5 2.89
  46  0.200  0.400  0.600-  68 2.04  28 2.04  57 2.04  22 2.04  45 2.89  65 2.89  51 2.89  15 2.89
                            11 2.89  72 2.89  78 2.89  84 2.89  34 2.89  44 2.89
  47  0.800  0.200  0.200-  12 2.04  39 2.04   3 2.89  92 2.89  26 2.89  23 2.89  90 2.89  25 2.89
                            94 2.89  50 2.89  43 2.89  96 2.89
  48  0.600  0.200  0.600-  14 2.04  42 2.04  71 2.04  45 2.04  60 2.04   3 2.04   4 2.89  49 2.89
                            12 2.89  30 2.89  81 2.89  88 2.89  31 2.89  19 2.89  91 2.89
  49  0.400  0.200  0.800-  45 2.04  51 2.04  65 2.04  53 2.04  71 2.04  85 2.04  68 2.89  18 2.89
                            48 2.89  29 2.89  32 2.89  91 2.89  30 2.89  23 2.89  40 2.89
  50  0.800  0.000  0.000-  61 2.04  10 2.04   2 2.04  83 2.04  30 2.89  21 2.89  23 2.89  90 2.89
                            47 2.89   4 2.89  70 2.89  36 2.89  43 2.89  96 2.89
  51  0.200  0.200  0.800-  49 2.04  68 2.04  32 2.04  13 2.04  18 2.04  45 2.89  65 2.89  46 2.89
                            62 2.89  15 2.89  53 2.89  85 2.89  97 2.89  96 2.89  27 2.89
  52  0.200  0.600  0.200-  34 2.04  64 2.04  59 2.04  35 2.04  24 2.89  37 2.89  82 2.89  33 2.89
                            28 2.89  67 2.89  55 2.89  87 2.89  26 2.89  79 2.89  97 2.89
  53  0.400  0.000  0.800-  32 2.04  91 2.04  40 2.04  49 2.04  89 2.04  30 2.04  62 2.89  60 2.89
                            45 2.89  73 2.89  27 2.89  51 2.89  93 2.89  77 2.89  85 2.89   6 2.89
  54  0.000  0.600  0.800-  44 2.04  56 2.04  69 2.04  72 2.04  79 2.04  98 2.89  70 2.89  36 2.89
                            73 2.89  57 2.89  22 2.89  59 2.89
  55  0.400  0.400  0.200-  35 2.04  78 2.04  86 2.04  29 2.04  92 2.04  28 2.89  19 2.89 100 2.89
                            85 2.89  52 2.89  24 2.89  97 2.89  81 2.89   8 2.89  75 2.89  87 2.89
  56  0.000  0.800  0.800-  54 2.04  98 2.04  70 2.04  73 2.04  36 2.04  44 2.89  72 2.89  69 2.89
                            79 2.89  17 2.89  99 2.89  32 2.89  33 2.89  83 2.89  10 2.89   2 2.89
  57  0.200  0.600  0.600-  72 2.04  84 2.04  99 2.04  34 2.04  44 2.04  46 2.04  93 2.89  73 2.89
                            24 2.89  54 2.89  98 2.89  82 2.89  28 2.89  67 2.89  22 2.89
  58  0.800  0.800  0.400-  20 2.04  38 2.04  25 2.04  95 2.04   1 2.89   7 2.89  67 2.89  74 2.89
                            31 2.89  88 2.89  98 2.89
  59  0.200  0.600  0.000-  33 2.04  87 2.04  72 2.04  79 2.04  52 2.04  97 2.04  77 2.89  29 2.89
                            64 2.89  36 2.89  73 2.89  54 2.89  35 2.89
  60  0.600  0.000  0.600-  30 2.04  88 2.04  48 2.04  74 2.04  31 2.04  91 2.04  83 2.89  71 2.89
                             6 2.89  14 2.89  25 2.89  53 2.89  45 2.89   3 2.89   5 2.89  20 2.89
  61  0.600  0.000  0.000-  50 2.04  23 2.04  30 2.04  40 2.04  21 2.04  90 2.04  83 2.89   2 2.89
                            53 2.89  71 2.89  77 2.89   9 2.89  85 2.89   6 2.89
  62  0.200  0.000  0.600-  32 2.04  91 2.04  16 2.04  68 2.04  17 2.04  99 2.04  53 2.89  45 2.89
                            73 2.89  51 2.89  93 2.89   5 2.89  11 2.89  15 2.89  98 2.89  82 2.89
  63  0.600  0.600  0.600-  74 2.04  80 2.04   7 2.04  42 2.04  84 2.04  69 2.89   6 2.89  38 2.89
                            20 2.89  93 2.89  24 2.89  81 2.89
  64  0.200  0.800  0.200-  37 2.04  52 2.04  82 2.04  66 2.04  33 2.04  76 2.89  34 2.89   9 2.89
                            16 2.89  77 2.89  59 2.89  95 2.89  27 2.89  43 2.89  36 2.89
  65  0.400  0.400  0.800-  49 2.04  29 2.04  46 2.89  45 2.89  51 2.89  42 2.89  71 2.89  72 2.89
                            84 2.89  85 2.89  97 2.89  80 2.89  87 2.89  75 2.89
  66  0.200  0.000  0.200-   9 2.04  16 2.04  27 2.04  43 2.04  64 2.04 100 2.04   5 2.89  11 2.89
                            37 2.89  82 2.89  86 2.89  40 2.89  18 2.89  39 2.89  10 2.89  33 2.89
  67  0.000  0.600  0.400-  95 2.04  38 2.04  44 2.04  34 2.04   1 2.89  52 2.89  58 2.89  82 2.89
                            26 2.89  98 2.89  28 2.89  57 2.89  22 2.89
  68  0.200  0.200  0.600-  45 2.04  46 2.04  51 2.04  15 2.04  11 2.04  62 2.04  49 2.89  13 2.89
                            19 2.89  22 2.89  28 2.89  32 2.89  91 2.89  16 2.89  17 2.89
  69  0.800  0.600  0.800-  70 2.04  80 2.04  54 2.04   6 2.89  63 2.89  56 2.89  41 2.89  44 2.89
                             2 2.89  79 2.89  94 2.89
  70  0.800  0.800  0.800-   6 2.04  69 2.04  56 2.04   2 2.04  83 2.04  80 2.89  74 2.89  54 2.89
                            21 2.89  30 2.89  88 2.89  98 2.89  36 2.89  50 2.89
  71  0.600  0.200  0.800-   4 2.04  48 2.04  30 2.04  23 2.04  49 2.04  14 2.89  42 2.89  45 2.89
                            60 2.89  65 2.89  75 2.89  83 2.89  61 2.89  53 2.89  85 2.89
  72  0.200  0.600  0.800-  57 2.04  73 2.04  59 2.04  54 2.04  84 2.89  89 2.89  99 2.89  65 2.89
                            33 2.89  56 2.89  87 2.89  44 2.89  46 2.89  97 2.89  79 2.89
  73  0.200  0.800  0.800-  72 2.04  89 2.04  99 2.04  32 2.04  33 2.04  56 2.04  93 2.89  57 2.89
                            53 2.89  77 2.89  54 2.89  59 2.89  98 2.89  62 2.89  27 2.89  36 2.89
  74  0.600  0.800  0.600-   6 2.04  63 2.04  60 2.04  20 2.04  93 2.04  80 2.89  70 2.89  58 2.89
                             7 2.89  84 2.89  88 2.89  89 2.89  30 2.89  76 2.89  91 2.89  31 2.89
  75  0.600  0.400  0.000-  23 2.04  94 2.04  41 2.04  92 2.04  29 2.04  71 2.89  85 2.89  80 2.89
                            55 2.89  87 2.89  65 2.89   8 2.89
  76  0.400  0.800  0.400-  24 2.04  37 2.04  82 2.04  20 2.04   5 2.04  93 2.04  34 2.89  64 2.89
                             9 2.89  16 2.89  84 2.89   7 2.89  99 2.89  91 2.89  31 2.89  74 2.89
  77  0.400  0.800  0.000-  33 2.04  87 2.04  37 2.04  40 2.04  21 2.04  89 2.04  59 2.89  64 2.89
                            73 2.89  41 2.89  27 2.89   9 2.89  53 2.89   6 2.89  61 2.89
  78  0.400  0.400  0.400-  19 2.04  28 2.04  55 2.04  24 2.04  81 2.04  11 2.89  35 2.89  86 2.89
                            46 2.89  34 2.89   3 2.89  45 2.89  92 2.89  84 2.89   7 2.89  42 2.89
  79  0.000  0.600  0.000-  36 2.04  54 2.04  59 2.04  33 2.89  56 2.89   2 2.89   1 2.89  26 2.89
                            52 2.89  69 2.89  72 2.89  94 2.89  97 2.89
  80  0.600  0.600  0.800-   6 2.04  63 2.04  69 2.04  41 2.04  70 2.89  74 2.89  21 2.89  42 2.89
                            84 2.89  89 2.89  65 2.89  87 2.89  75 2.89
  81  0.600  0.400  0.400-   3 2.04  92 2.04  42 2.04  78 2.04   7 2.04  12 2.89   8 2.89  48 2.89
                            55 2.89  19 2.89  38 2.89  24 2.89  63 2.89
  82  0.200  0.800  0.400-  34 2.04  64 2.04  76 2.04  16 2.04  95 2.04  99 2.04  37 2.89  52 2.89
                            24 2.89  67 2.89  57 2.89  93 2.89   5 2.89  66 2.89  98 2.89  62 2.89
  83  0.800  0.000  0.800-  30 2.04  88 2.04  50 2.04  70 2.04   4 2.04  60 2.89  17 2.89  61 2.89
                             6 2.89  71 2.89  14 2.89  13 2.89   2 2.89  56 2.89  10 2.89
  84  0.400  0.600  0.600-  57 2.04  93 2.04  63 2.04  24 2.04  89 2.89  72 2.89  99 2.89  74 2.89
                            76 2.89  80 2.89  46 2.89  65 2.89  34 2.89   7 2.89  78 2.89  42 2.89
  85  0.400  0.200  0.000-  18 2.04  29 2.04  23 2.04  40 2.04  49 2.04  86 2.04  97 2.89  55 2.89
                            65 2.89  75 2.89  27 2.89  51 2.89 100 2.89   9 2.89  61 2.89  53 2.89
  86  0.400  0.200  0.200-  19 2.04  55 2.04 100 2.04  85 2.04   9 2.04  78 2.89  35 2.89  11 2.89
                            18 2.89  66 2.89   3 2.89  29 2.89  92 2.89   5 2.89  90 2.89  23 2.89
  87  0.400  0.600  0.000-  59 2.04  77 2.04  29 2.04  41 2.04  33 2.89  52 2.89  37 2.89  72 2.89
                            21 2.89  89 2.89  97 2.89  75 2.89   8 2.89  80 2.89  65 2.89  55 2.89
  88  0.800  0.000  0.600-  60 2.04  83 2.04  25 2.04  14 2.04  17 2.04  30 2.89  48 2.89   4 2.89
                            70 2.89  74 2.89  31 2.89  12 2.89  58 2.89  15 2.89  98 2.89
  89  0.400  0.800  0.800-  73 2.04  93 2.04   6 2.04  77 2.04  53 2.04  84 2.89  72 2.89  99 2.89
                            80 2.89  32 2.89  87 2.89  91 2.89  74 2.89  33 2.89  40 2.89  21 2.89
  90  0.600  0.000  0.200-  31 2.04   9 2.04  61 2.04  25 2.89   5 2.89   3 2.89  47 2.89  50 2.89
                            20 2.89  40 2.89  21 2.89  23 2.89  37 2.89  86 2.89
  91  0.400  0.000  0.600-  53 2.04  62 2.04   5 2.04  60 2.04  45 2.04  93 2.04  32 2.89  30 2.89
                            49 2.89  68 2.89  89 2.89  16 2.89  99 2.89  74 2.89  76 2.89  48 2.89
  92  0.600  0.400  0.200-  81 2.04  55 2.04  75 2.04   8 2.04  47 2.89   3 2.89   1 2.89  23 2.89
                            78 2.89   7 2.89  86 2.89  94 2.89  41 2.89  29 2.89
  93  0.400  0.800  0.600-  84 2.04  89 2.04  99 2.04  76 2.04  91 2.04  74 2.04  57 2.89  73 2.89
                             6 2.89  82 2.89  62 2.89  63 2.89  24 2.89  53 2.89   5 2.89  60 2.89
  94  0.800  0.400  0.000-  75 2.04  23 2.89  41 2.89  47 2.89   4 2.89  92 2.89  96 2.89   1 2.89
                            79 2.89  26 2.89  69 2.89
  95  0.000  0.800  0.400-  67 2.04  58 2.04  82 2.04  98 2.04  34 2.89  64 2.89  38 2.89  43 2.89
                            44 2.89  16 2.89  17 2.89  25 2.89  99 2.89
  96  0.000  0.200  0.000-  10 2.04  13 2.04  18 2.04  39 2.04  26 2.89  94 2.89  97 2.89  43 2.89
                            47 2.89  50 2.89  51 2.89  27 2.89   4 2.89 100 2.89
  97  0.200  0.400  0.000-  18 2.04  29 2.04  35 2.04  59 2.04  85 2.89  51 2.89  65 2.89  55 2.89
                            87 2.89  96 2.89 100 2.89  52 2.89  26 2.89  72 2.89  79 2.89
  98  0.000  0.800  0.600-  44 2.04  56 2.04  17 2.04  95 2.04  99 2.04  54 2.89  70 2.89  73 2.89
                            57 2.89  67 2.89  82 2.89  88 2.89  62 2.89  58 2.89
  99  0.200  0.800  0.600-  57 2.04  73 2.04  93 2.04  82 2.04  62 2.04  98 2.04  89 2.89  72 2.89
                            84 2.89  32 2.89  34 2.89  44 2.89  91 2.89  56 2.89  76 2.89  17 2.89
 100  0.200  0.200  0.200-  11 2.04  35 2.04  86 2.04  39 2.04  66 2.04  18 2.04  55 2.89  19 2.89
                            28 2.89   9 2.89  16 2.89  85 2.89  26 2.89  97 2.89  43 2.89  96 2.89
 

IMPORTANT INFORMATION: All symmetrisations will be switched off!
NOSYMM: (Re-)initialisation of all symmetry stuff for point group C_1.

 
 
 KPOINTS: simple                                  

Automatic generation of k-mesh.
Space group operators:
 irot       det(A)        alpha          n_x          n_y          n_z        tau_x        tau_y        tau_z
    1     1.000000     0.000000     1.000000     0.000000     0.000000     0.000000     0.000000     0.000000
 
 Subroutine IBZKPT returns following result:
 ===========================================
 
 Found      1 irreducible k-points:
 
 Following reciprocal coordinates:
            Coordinates               Weight
  0.000000  0.000000  0.000000      1.000000
 
 Following cartesian coordinates:
            Coordinates               Weight
  0.000000  0.000000  0.000000      1.000000
 


--------------------------------------------------------------------------------------------------------




 Dimension of arrays:
   k-points           NKPTS =      1   k-points in BZ     NKDIM =      1   number of bands    NBANDS=    304
   number of dos      NEDOS =    301   number of ions     NIONS =    100
   non local maximal  LDIM  =      4   non local SUM 2l+1 LMDIM =      8
   total plane-waves  NPLWV =  64000
   max r-space proj   IRMAX =   1017   max aug-charges    IRDMAX=   2209
   dimension x,y,z NGX =    40 NGY =   40 NGZ =   40
   dimension x,y,z NGXF=    80 NGYF=   80 NGZF=   80
   support grid    NGXF=    80 NGYF=   80 NGZF=   80
   ions per type =             100
   NGX,Y,Z   is equivalent  to a cutoff of   6.51,  6.51,  6.51 a.u.
   NGXF,Y,Z  is equivalent  to a cutoff of  13.02, 13.02, 13.02 a.u.

 SYSTEM =  unknown system                          
 POSCAR =  Si100                                   

 Startparameter for this run:
   NWRITE =      2    write-flag & timer
   PREC   = normal    normal or accurate (medium, high low for compatibility)
   ISTART =      0    job   : 0-new  1-cont  2-samecut
   ICHARG =      2    charge: 1-file 2-atom 10-const
   ISPIN  =      2    spin polarized calculation?
   LNONCOLLINEAR =      F non collinear calculations
   LSORBIT =      F    spin-orbit coupling
   INIWAV =      1    electr: 0-lowe 1-rand  2-diag
   LASPH  =      F    aspherical Exc in radial PAW
   METAGGA=      F    non-selfconsistent MetaGGA calc.

 Electronic Relaxation 1
   ENCUT  =  245.3 eV  18.03 Ry    4.25 a.u.  13.04 13.04 13.04*2*pi/ulx,y,z
   ENINI  =  245.3     initial cutoff
   ENAUG  =  322.1 eV  augmentation charge cutoff
   NELM   =     60;   NELMIN=  4; NELMDL=  0     # of ELM steps 
   EDIFF  = 0.1E-04   stopping-criterion for ELM
   LREAL  =      T    real-space projection
   NLSPLINE    = F    spline interpolate recip. space projectors
   LCOMPAT=      F    compatible to vasp.4.4
   GGA_COMPAT  = T    GGA compatible to vasp.4.4-vasp.4.6
   LMAXPAW     = -100 max onsite density
   LMAXMIX     =    2 max onsite mixed and CHGCAR
   VOSKOWN=      0    Vosko Wilk Nusair interpolation
   ROPT   =   -0.00050
 Ionic relaxation
   EDIFFG = 0.1E-03   stopping-criterion for IOM
   NSW    =      0    number of steps for IOM
   NBLOCK =      1;   KBLOCK =      1    inner block; outer block 
   IBRION =     -1    ionic relax: 0-MD 1-quasi-New 2-CG
   NFREE  =      0    steps in history (QN), initial steepest desc. (CG)
   ISIF   =      2    stress and relaxation
   IWAVPR =     10    prediction:  0-non 1-charg 2-wave 3-comb
   ISYM   =      0    0-nonsym 1-usesym 2-fastsym
   LCORR  =      T    Harris-Foulkes like correction to forces

   POTIM  = 0.5000    time-step for ionic-motion
   TEIN   =    0.0    initial temperature
   TEBEG  =    0.0;   TEEND  =   0.0 temperature during run
   SMASS  =  -3.00    Nose mass-parameter (am)
   estimated Nose-frequenzy (Omega)   =  0.10E-29 period in steps =****** mass=  -0.238E-26a.u.
   SCALEE = 1.0000    scale energy and forces
   NPACO  =    256;   APACO  = 16.0  distance and # of slots for P.C.
   PSTRESS=    0.0 pullay stress

  Mass of Ions in am
   POMASS =  28.09
  Ionic Valenz
   ZVAL   =   4.00
  Atomic Wigner-Seitz radii
   RWIGS  =  -1.00
  virtual crystal weights 
   VCA    =   1.00
   NELECT =     400.0000    total number of electrons
   NUPDOWN=      -1.0000    fix difference up-down

 DOS related values:
   EMIN   =  10.00;   EMAX   =-10.00  energy-range for DOS
   EFERMI =   0.00
   ISMEAR =     0;   SIGMA  =   0.05  broadening in eV -4-tet -1-fermi 0-gaus

 Electronic relaxation 2 (details)
   IALGO  =     68    algorithm
   LDIAG  =      T    sub-space diagonalisation (order eigenvalues)
   LSUBROT=      F    optimize rotation matrix (better conditioning)
   TURBO    =      0    0=normal 1=particle mesh
   IRESTART =      0    0=no restart 2=restart with 2 vectors
   NREBOOT  =      0    no. of reboots
   NMIN     =      0    reboot dimension
   EREF     =   0.00    reference energy to select bands
   IMIX   =      4    mixing-type and parameters
     AMIX     =   0.40;   BMIX     =  1.00
     AMIX_MAG =   1.60;   BMIX_MAG =  1.00
     AMIN     =   0.10
     WC   =   100.;   INIMIX=   1;  MIXPRE=   1;  MAXMIX= -45

 Intra band minimization:
   WEIMIN = 0.0000     energy-eigenvalue tresh-hold
   EBREAK =  0.82E-08  absolut break condition
   DEPER  =   0.30     relativ break condition  

   TIME   =   0.40     timestep for ELM

  volume/ion in A,a.u.               =      10.65        71.86
  Fermi-wavevector in a.u.,A,eV,Ry     =   1.181242  2.232223 18.984649  1.395332
  Thomas-Fermi vector in A             =   2.317519
 
 Write flags
   LWAVE        =      F    write WAVECAR
   LDOWNSAMPLE  =      F    k-point downsampling of WAVECAR
   LCHARG       =      F    write CHGCAR
   LVTOT        =      F    write LOCPOT, total local potential
   LVHAR        =      F    write LOCPOT, Hartree potential only
   LELF         =      F    write electronic localiz. function (ELF)
   LORBIT       =      0    0 simple, 1 ext, 2 COOP (PROOUT), +10 PAW based schemes


 Dipole corrections
   LMONO  =      F    monopole corrections only (constant potential shift)
   LDIPOL =      F    correct potential (dipole corrections)
   IDIPOL =      0    1-x, 2-y, 3-z, 4-all directions 
   EPSILON=  1.0000000 bulk dielectric constant

 Exchange correlation treatment:
   GGA     =    --    GGA type
   LEXCH   =     8    internal setting for exchange type
   VOSKOWN=      0    Vosko Wilk Nusair interpolation
   LHFCALC =     F    Hartree Fock is set to
   LHFONE  =     F    Hartree Fock one center treatment
   AEXX    =    0.0000 exact exchange contribution

 Linear response parameters
   LEPSILON=     F    determine dielectric tensor
   LRPA    =     F    only Hartree local field effects (RPA)
   LNABLA  =     F    use nabla operator in PAW spheres
   LVEL    =     F    velocity operator in full k-point grid
   LINTERFAST=   F  fast interpolation
   KINTER  =     0    interpolate to denser k-point grid
   CSHIFT  =0.1000    complex shift for real part using Kramers Kronig
   OMEGAMAX=  -1.0    maximum frequency
   DEG_THRESHOLD= 0.2000000E-02 threshold for treating states as degnerate
   RTIME   =   -0.100 relaxation time in fs
  (WPLASMAI=    0.000 imaginary part of plasma frequency in eV, 0.658/RTIME)
   DFIELD  = 0.0000000 0.0000000 0.0000000 field for delta impulse in time
 
 Orbital magnetization related:
   ORBITALMAG=     F  switch on orbital magnetization
   LCHIMAG   =     F  perturbation theory with respect to B field
   DQ        =  0.001000  dq finite difference perturbation B field
   LLRAUG    =     F  two centre corrections for induced B field



--------------------------------------------------------------------------------------------------------


 Static calculation
 charge density and potential will be updated during run
 spin polarized calculation
 RMM-DIIS sequential band-by-band and
  variant of blocked Davidson during initial phase
 perform sub-space diagonalisation
    before iterative eigenvector-optimisation
 modified Broyden-mixing scheme, WC =      100.0
 initial mixing is a Kerker type mixing with AMIX =  0.4000 and BMIX =      1.0000
 Hartree-type preconditioning will be used
 using additional bands          104
 real space projection scheme for non local part
 use partial core corrections
 calculate Harris-corrections to forces 
   (improved forces if not selfconsistent)
 use gradient corrections 
 use of overlap-Matrix (Vanderbilt PP)
 Gauss-broadening in eV      SIGMA  =   0.05


--------------------------------------------------------------------------------------------------------


  energy-cutoff  :      245.34
  volume of cell :     1064.80
      direct lattice vectors                 reciprocal lattice vectors
    10.211495000  0.000000000  0.000000000     0.097928854  0.000000000  0.000000000
     0.000000000 10.211495000  0.000000000     0.000000000  0.097928854  0.000000000
     0.000000000  0.000000000 10.211495000     0.000000000  0.000000000  0.097928854

  length of vectors
    10.211495000 10.211495000 10.211495000     0.097928854  0.097928854  0.097928854


 
 k-points in units of 2pi/SCALE and weight: simple                                  
   0.00000000  0.00000000  0.00000000       1.000
 
 k-points in reciprocal lattice and weights: simple                                  
   0.00000000  0.00000000  0.00000000       1.000
 
 position of ions in fractional coordinates (direct lattice) 
   0.80000000  0.60000000  0.20000000
   0.80000000  0.80000000  0.00000000
   0.60000000  0.20000000  0.40000000
   0.80000000  0.20000000  0.80000000
   0.40000000  0.00000000  0.40000000
   0.60000000  0.80000000  0.80000000
   0.60000000  0.60000000  0.40000000
   0.60000000  0.60000000  0.20000000
   0.40000000  0.00000000  0.20000000
   0.00000000  0.00000000  0.00000000
   0.20000000  0.20000000  0.40000000
   0.80000000  0.20000000  0.40000000
   0.00000000  0.20000000  0.80000000
   0.80000000  0.20000000  0.60000000
   0.00000000  0.20000000  0.60000000
   0.20000000  0.00000000  0.40000000
   0.00000000  0.00000000  0.60000000
   0.20000000  0.20000000  0.00000000
   0.40000000  0.20000000  0.40000000
   0.60000000  0.80000000  0.40000000
   0.60000000  0.80000000  0.00000000
   0.00000000  0.40000000  0.60000000
   0.60000000  0.20000000  0.00000000
   0.40000000  0.60000000  0.40000000
   0.80000000  0.00000000  0.40000000
   0.00000000  0.40000000  0.20000000
   0.20000000  0.00000000  0.00000000
   0.20000000  0.40000000  0.40000000
   0.40000000  0.40000000  0.00000000
   0.60000000  0.00000000  0.80000000
   0.60000000  0.00000000  0.40000000
   0.20000000  0.00000000  0.80000000
   0.20000000  0.80000000  0.00000000
   0.20000000  0.60000000  0.40000000
   0.20000000  0.40000000  0.20000000
   0.00000000  0.80000000  0.00000000
   0.40000000  0.80000000  0.20000000
   0.80000000  0.60000000  0.40000000
   0.00000000  0.20000000  0.20000000
   0.40000000  0.00000000  0.00000000
   0.60000000  0.60000000  0.00000000
   0.60000000  0.40000000  0.60000000
   0.00000000  0.00000000  0.20000000
   0.00000000  0.60000000  0.60000000
   0.40000000  0.20000000  0.60000000
   0.20000000  0.40000000  0.60000000
   0.80000000  0.20000000  0.20000000
   0.60000000  0.20000000  0.60000000
   0.40000000  0.20000000  0.80000000
   0.80000000  0.00000000  0.00000000
   0.20000000  0.20000000  0.80000000
   0.20000000  0.60000000  0.20000000
   0.40000000  0.00000000  0.80000000
   0.00000000  0.60000000  0.80000000
   0.40000000  0.40000000  0.20000000
   0.00000000  0.80000000  0.80000000
   0.20000000  0.60000000  0.60000000
   0.80000000  0.80000000  0.40000000
   0.20000000  0.60000000  0.00000000
   0.60000000  0.00000000  0.60000000
   0.60000000  0.00000000  0.00000000
   0.20000000  0.00000000  0.60000000
   0.60000000  0.60000000  0.60000000
   0.20000000  0.80000000  0.20000000
   0.40000000  0.40000000  0.80000000
   0.20000000  0.00000000  0.20000000
   0.00000000  0.60000000  0.40000000
   0.20000000  0.20000000  0.60000000
   0.80000000  0.60000000  0.80000000
   0.80000000  0.80000000  0.80000000
   0.60000000  0.20000000  0.80000000
   0.20000000  0.60000000  0.80000000
   0.20000000  0.80000000  0.80000000
   0.60000000  0.80000000  0.60000000
   0.60000000  0.40000000  0.00000000
   0.40000000  0.80000000  0.40000000
   0.40000000  0.80000000  0.00000000
   0.40000000  0.40000000  0.40000000
   0.00000000  0.60000000  0.00000000
   0.60000000  0.60000000  0.80000000
   0.60000000  0.40000000  0.40000000
   0.20000000  0.80000000  0.40000000
   0.80000000  0.00000000  0.80000000
   0.40000000  0.60000000  0.60000000
   0.40000000  0.20000000  0.00000000
   0.40000000  0.20000000  0.20000000
   0.40000000  0.60000000  0.00000000
   0.80000000  0.00000000  0.60000000
   0.40000000  0.80000000  0.80000000
   0.60000000  0.00000000  0.20000000
   0.40000000  0.00000000  0.60000000
   0.60000000  0.40000000  0.20000000
   0.40000000  0.80000000  0.60000000
   0.80000000  0.40000000  0.00000000
   0.00000000  0.80000000  0.40000000
   0.00000000  0.20000000  0.00000000
   0.20000000  0.40000000  0.00000000
   0.00000000  0.80000000  0.60000000
   0.20000000  0.80000000  0.60000000
   0.20000000  0.20000000  0.20000000
 
 position of ions in cartesian coordinates  (Angst):
   8.16919600  6.12689700  2.04229900
   8.16919600  8.16919600  0.00000000
   6.12689700  2.04229900  4.08459800
   8.16919600  2.04229900  8.16919600
   4.08459800  0.00000000  4.08459800
   6.12689700  8.16919600  8.16919600
   6.12689700  6.12689700  4.08459800
   6.12689700  6.12689700  2.04229900
   4.08459800  0.00000000  2.04229900
   0.00000000  0.00000000  0.00000000
   2.04229900  2.04229900  4.08459800
   8.16919600  2.04229900  4.08459800
   0.00000000  2.04229900  8.16919600
   8.16919600  2.04229900  6.12689700
   0.00000000  2.04229900  6.12689700
   2.04229900  0.00000000  4.08459800
   0.00000000  0.00000000  6.12689700
   2.04229900  2.04229900  0.00000000
   4.08459800  2.04229900  4.08459800
   6.12689700  8.16919600  4.08459800
   6.12689700  8.16919600  0.00000000
   0.00000000  4.08459800  6.12689700
   6.12689700  2.04229900  0.00000000
   4.08459800  6.12689700  4.08459800
   8.16919600  0.00000000  4.08459800
   0.00000000  4.08459800  2.04229900
   2.04229900  0.00000000  0.00000000
   2.04229900  4.08459800  4.08459800
   4.08459800  4.08459800  0.00000000
   6.12689700  0.00000000  8.16919600
   6.12689700  0.00000000  4.08459800
   2.04229900  0.00000000  8.16919600
   2.04229900  8.16919600  0.00000000
   2.04229900  6.12689700  4.08459800
   2.04229900  4.08459800  2.04229900
   0.00000000  8.16919600  0.00000000
   4.08459800  8.16919600  2.04229900
   8.16919600  6.12689700  4.08459800
   0.00000000  2.04229900  2.04229900
   4.08459800  0.00000000  0.00000000
   6.12689700  6.12689700  0.00000000
   6.12689700  4.08459800  6.12689700
   0.00000000  0.00000000  2.04229900
   0.00000000  6.12689700  6.12689700
   4.08459800  2.04229900  6.12689700
   2.04229900  4.08459800  6.12689700
   8.16919600  2.04229900  2.04229900
   6.12689700  2.04229900  6.12689700
   4.08459800  2.04229900  8.16919600
   8.16919600  0.00000000  0.00000000
   2.04229900  2.04229900  8.16919600
   2.04229900  6.12689700  2.04229900
   4.08459800  0.00000000  8.16919600
   0.00000000  6.12689700  8.16919600
   4.08459800  4.08459800  2.04229900
   0.00000000  8.16919600  8.16919600
   2.04229900  6.12689700  6.12689700
   8.16919600  8.16919600  4.08459800
   2.04229900  6.12689700  0.00000000
   6.12689700  0.00000000  6.12689700
   6.12689700  0.00000000  0.00000000
   2.04229900  0.00000000  6.12689700
   6.12689700  6.12689700  6.12689700
   2.04229900  8.16919600  2.04229900
   4.08459800  4.08459800  8.16919600
   2.04229900  0.00000000  2.04229900
   0.00000000  6.12689700  4.08459800
   2.04229900  2.04229900  6.12689700
   8.16919600  6.12689700  8.16919600
   8.16919600  8.16919600  8.16919600
   6.12689700  2.04229900  8.16919600
   2.04229900  6.12689700  8.16919600
   2.04229900  8.16919600  8.16919600
   6.12689700  8.16919600  6.12689700
   6.12689700  4.08459800  0.00000000
   4.08459800  8.16919600  4.08459800
   4.08459800  8.16919600  0.00000000
   4.08459800  4.08459800  4.08459800
   0.00000000  6.12689700  0.00000000
   6.12689700  6.12689700  8.16919600
   6.12689700  4.08459800  4.08459800
   2.04229900  8.16919600  4.08459800
   8.16919600  0.00000000  8.16919600
   4.08459800  6.12689700  6.12689700
   4.08459800  2.04229900  0.00000000
   4.08459800  2.04229900  2.04229900
   4.08459800  6.12689700  0.00000000
   8.16919600  0.00000000  6.12689700
   4.08459800  8.16919600  8.16919600
   6.12689700  0.00000000  2.04229900
   4.08459800  0.00000000  6.12689700
   6.12689700  4.08459800  2.04229900
   4.08459800  8.16919600  6.12689700
   8.16919600  4.08459800  0.00000000
   0.00000000  8.16919600  4.08459800
   0.00000000  2.04229900  0.00000000
   2.04229900  4.08459800  0.00000000
   0.00000000  8.16919600  6.12689700
   2.04229900  8.16919600  6.12689700
   2.04229900  2.04229900  2.04229900
 


--------------------------------------------------------------------------------------------------------


 k-point  1 :   0.0000 0.0000 0.0000  plane waves:    9315

 maximum and minimum number of plane-waves per node :      9315     9315

 maximum number of plane-waves:      9315
 maximum index in each direction: 
   IXMAX=   13   IYMAX=   13   IZMAX=   13
   IXMIN=  -13   IYMIN=  -13   IZMIN=  -13


 serial   3D FFT for wavefunctions
 parallel 3D FFT for charge:
    minimum data exchange during FFTs selected (reduces bandwidth)


 total amount of memory used by VASP MPI-rank0    53807. kBytes
=======================================================================

   base      :      30000. kBytes
   nonlr-proj:       8139. kBytes
   fftplans  :       1377. kBytes
   grid      :       7520. kBytes
   one-center:        614. kBytes
   wavefun   :       6157. kBytes
 
     INWAV:  cpu time    0.0000: real time    0.0000
 Broyden mixing: mesh for mixing (old mesh)
   NGX = 27   NGY = 27   NGZ = 27
  (NGX  = 80   NGY  = 80   NGZ  = 80)
  gives a total of  19683 points

 initial charge density was supplied:
 charge density of overlapping atoms calculated
 number of electron     400.0000000 magnetization     100.0000000
 keeping initial charge density in first step


--------------------------------------------------------------------------------------------------------


 Maximum index for non-local projection operator          925
 Maximum index for augmentation-charges          185 (set IRDMAX)


--------------------------------------------------------------------------------------------------------


 First call to EWALD:  gamma=   0.174
 Maximum number of real-space cells 3x 3x 3
 Maximum number of reciprocal cells 3x 3x 3

    FEWALD:  cpu time    0.0065: real time    0.0065


--------------------------------------- Iteration      1(   1)  ---------------------------------------


    POTLOK:  cpu time    0.0463: real time    0.1534
    SETDIJ:  cpu time    0.0285: real time    0.0286
     EDDAV:  cpu time    1.6960: real time    1.7068
       DOS:  cpu time    0.0010: real time    0.0010
    --------------------------------------------
      LOOP:  cpu time    1.7718: real time    1.8899

 eigenvalue-minimisations  :  1216
 total energy-change (2. order) : 0.9226289E+03  (-0.1041605E+05)
 number of electron     400.0000000 magnetization     100.0000000
 augmentation part      400.0000000 magnetization     100.0000000

 Free energy of the ion-electron system (eV)
  ---------------------------------------------------
  alpha Z        PSCENC =       316.14514549
  Ewald energy   TEWEN  =    -12947.38204056
  -Hartree energ DENC   =     -1458.60698500
  -exchange      EXHF   =         0.00000000
  -V(xc)+E(xc)   XCENC  =      -762.14367111
  PAW double counting   =      8803.41707833    -7043.47671478
  entropy T*S    EENTRO =        -0.02254373
  eigenvalues    EBANDS =      3708.56997940
  atomic energy  EATOM  =     10306.12861560
  Solvation  Ediel_sol  =         0.00000000
  ---------------------------------------------------
  free energy    TOTEN  =       922.62886364 eV

  energy without entropy =      922.65140737  energy(sigma->0) =      922.64013551


--------------------------------------------------------------------------------------------------------




--------------------------------------- Iteration      1(   2)  ---------------------------------------


     EDDAV:  cpu time    1.9848: real time    1.9979
       DOS:  cpu time    0.0010: real time    0.0010
    --------------------------------------------
      LOOP:  cpu time    1.9858: real time    1.9989

 eigenvalue-minimisations  :  1504
 total energy-change (2. order) :-0.1128309E+04  (-0.1056247E+04)
 number of electron     400.0000000 magnetization     100.0000000
 augmentation part      400.0000000 magnetization     100.0000000

 Free energy of the ion-electron system (eV)
  ---------------------------------------------------
  alpha Z        PSCENC =       316.14514549
  Ewald energy   TEWEN  =    -12947.38204056
  -Hartree energ DENC   =     -1458.60698500
  -exchange      EXHF   =         0.00000000
  -V(xc)+E(xc)   XCENC  =      -762.14367111
  PAW double counting   =      8803.41707833    -7043.47671478
  entropy T*S    EENTRO =        -0.04801227
  eigenvalues    EBANDS =      2580.28597131
  atomic energy  EATOM  =     10306.12861560
  Solvation  Ediel_sol  =         0.00000000
  ---------------------------------------------------
  free energy    TOTEN  =      -205.68061299 eV

  energy without entropy =     -205.63260072  energy(sigma->0) =     -205.65660685


--------------------------------------------------------------------------------------------------------




--------------------------------------- Iteration      1(   3)  ---------------------------------------


     EDDAV:  cpu time    1.9895: real time    2.0022
       DOS:  cpu time    0.0010: real time    0.0010
    --------------------------------------------
      LOOP:  cpu time    1.9905: real time    2.0032

 eigenvalue-minimisations  :  1504
 total energy-change (2. order) :-0.6046305E+02  (-0.5776794E+02)
 number of electron     400.0000000 magnetization     100.0000000
 augmentation part      400.0000000 magnetization     100.0000000

 Free energy of the ion-electron system (eV)
  ---------------------------------------------------
  alpha Z        PSCENC =       316.14514549
  Ewald energy   TEWEN  =    -12947.38204056
  -Hartree energ DENC   =     -1458.60698500
  -exchange      EXHF   =         0.00000000
  -V(xc)+E(xc)   XCENC  =      -762.14367111
  PAW double counting   =      8803.41707833    -7043.47671478
  entropy T*S    EENTRO =        -0.06223708
  eigenvalues    EBANDS =      2519.83714969
  atomic energy  EATOM  =     10306.12861560
  Solvation  Ediel_sol  =         0.00000000
  ---------------------------------------------------
  free energy    TOTEN  =      -266.14365942 eV

  energy without entropy =     -266.08142234  energy(sigma->0) =     -266.11254088


--------------------------------------------------------------------------------------------------------




--------------------------------------- Iteration      1(   4)  ---------------------------------------


     EDDAV:  cpu time    2.0561: real time    2.0692
       DOS:  cpu time    0.0010: real time    0.0010
    --------------------------------------------
      LOOP:  cpu time    2.0571: real time    2.0702

 eigenvalue-minimisations  :  1568
 total energy-change (2. order) :-0.1423485E+01  (-0.1404039E+01)
 number of electron     400.0000000 magnetization     100.0000000
 augmentation part      400.0000000 magnetization     100.0000000

 Free energy of the ion-electron system (eV)
  ---------------------------------------------------
  alpha Z        PSCENC =       316.14514549
  Ewald energy   TEWEN  =    -12947.38204056
  -Hartree energ DENC   =     -1458.60698500
  -exchange      EXHF   =         0.00000000
  -V(xc)+E(xc)   XCENC  =      -762.14367111
  PAW double counting   =      8803.41707833    -7043.47671478
  entropy T*S    EENTRO =        -0.06092748
  eigenvalues    EBANDS =      2518.41235459
  atomic energy  EATOM  =     10306.12861560
  Solvation  Ediel_sol  =         0.00000000
  ---------------------------------------------------
  free energy    TOTEN  =      -267.56714492 eV

  energy without entropy =     -267.50621743  energy(sigma->0) =     -267.53668118


--------------------------------------------------------------------------------------------------------




--------------------------------------- Iteration      1(   5)  ---------------------------------------


     EDDAV:  cpu time    1.9694: real time    1.9820
       DOS:  cpu time    0.0010: real time    0.0010
    CHARGE:  cpu time    0.0387: real time    0.0389
    MIXING:  cpu time    0.0008: real time    0.0008
    --------------------------------------------
      LOOP:  cpu time    2.0100: real time    2.0227

 eigenvalue-minimisations  :  1488
 total energy-change (2. order) :-0.3384309E-01  (-0.3372213E-01)
 number of electron     400.0002298 magnetization      65.8089839
 augmentation part      -26.2733557 magnetization      42.8963085

 Broyden mixing:
  rms(total) = 0.81303E+01    rms(broyden)= 0.81300E+01
  rms(prec ) = 0.93247E+01
  weight for this iteration     100.00

 Free energy of the ion-electron system (eV)
  ---------------------------------------------------
  alpha Z        PSCENC =       316.14514549
  Ewald energy   TEWEN  =    -12947.38204056
  -Hartree energ DENC   =     -1458.60698500
  -exchange      EXHF   =         0.00000000
  -V(xc)+E(xc)   XCENC  =      -762.14367111
  PAW double counting   =      8803.41707833    -7043.47671478
  entropy T*S    EENTRO =        -0.06089799
  eigenvalues    EBANDS =      2518.37848200
  atomic energy  EATOM  =     10306.12861560
  Solvation  Ediel_sol  =         0.00000000
  ---------------------------------------------------
  free energy    TOTEN  =      -267.60098801 eV

  energy without entropy =     -267.54009003  energy(sigma->0) =     -267.57053902


--------------------------------------------------------------------------------------------------------




--------------------------------------- Iteration      1(   6)  ---------------------------------------


    POTLOK:  cpu time    0.0434: real time    0.0436
    SETDIJ:  cpu time    0.0287: real time    0.0288
    EDDIAG:  cpu time    0.2847: real time    0.2860
  RMM-DIIS:  cpu time    0.7227: real time    0.7277
    ORTHCH:  cpu time    0.0865: real time    0.0869
       DOS:  cpu time    0.0003: real time    0.0003
    CHARGE:  cpu time    0.0394: real time    0.0395
    MIXING:  cpu time    0.0010: real time    0.0010
    --------------------------------------------
      LOOP:  cpu time    1.2068: real time    1.2138

 eigenvalue-minimisations  :  1383
 total energy-change (2. order) : 0.1702135E+02  (-0.9545716E+01)
 number of electron     400.0002253 magnetization      42.4801646
 augmentation part      -25.7494213 magnetization      30.5638588

 Broyden mixing:
  rms(total) = 0.50986E+01    rms(broyden)= 0.50986E+01
  rms(prec ) = 0.56771E+01
  weight for this iteration     100.00

 eigenvalues of (default mixing * dielectric matrix)
  average eigenvalue GAMMA=   1.2544
  1.2544

 Free energy of the ion-electron system (eV)
  ---------------------------------------------------
  alpha Z        PSCENC =       316.14514549
  Ewald energy   TEWEN  =    -12947.38204056
  -Hartree energ DENC   =     -1648.81744310
  -exchange      EXHF   =         0.00000000
  -V(xc)+E(xc)   XCENC  =      -755.55842806
  PAW double counting   =     43351.07973945   -41606.96389347
  entropy T*S    EENTRO =        -0.03437316
  eigenvalues    EBANDS =      2734.82303629
  atomic energy  EATOM  =     10306.12861560
  Solvation  Ediel_sol  =         0.00000000
  ---------------------------------------------------
  free energy    TOTEN  =      -250.57964151 eV

  energy without entropy =     -250.54526836  energy(sigma->0) =     -250.56245493


--------------------------------------------------------------------------------------------------------




--------------------------------------- Iteration      1(   7)  ---------------------------------------


    POTLOK:  cpu time    0.0433: real time    0.0435
    SETDIJ:  cpu time    0.0287: real time    0.0288
    EDDIAG:  cpu time    0.2853: real time    0.2865
  RMM-DIIS:  cpu time    0.6693: real time    0.6740
    ORTHCH:  cpu time    0.0866: real time    0.0869
       DOS:  cpu time    0.0003: real time    0.0003
    CHARGE:  cpu time    0.0394: real time    0.0396
    MIXING:  cpu time    0.0011: real time    0.0011
    --------------------------------------------
      LOOP:  cpu time    1.1540: real time    1.1607

 eigenvalue-minimisations  :  1287
 total energy-change (2. order) : 0.7906155E+00  (-0.1549385E+01)
 number of electron     400.0002260 magnetization      11.2998494
 augmentation part      -25.8290660 magnetization       1.4998421

 Broyden mixing:
  rms(total) = 0.30351E+01    rms(broyden)= 0.30351E+01
  rms(prec ) = 0.33370E+01
  weight for this iteration     100.00

 eigenvalues of (default mixing * dielectric matrix)
  average eigenvalue GAMMA=   1.5147
  2.4261  0.6034

 Free energy of the ion-electron system (eV)
  ---------------------------------------------------
  alpha Z        PSCENC =       316.14514549
  Ewald energy   TEWEN  =    -12947.38204056
  -Hartree energ DENC   =     -1628.15122345
  -exchange      EXHF   =         0.00000000
  -V(xc)+E(xc)   XCENC  =      -751.20351652
  PAW double counting   =     79165.52490634   -77430.16195730
  entropy T*S    EENTRO =        -0.05530147
  eigenvalues    EBANDS =      2719.36634584
  atomic energy  EATOM  =     10306.12861560
  Solvation  Ediel_sol  =         0.00000000
  ---------------------------------------------------
  free energy    TOTEN  =      -249.78902603 eV

  energy without entropy =     -249.73372456  energy(sigma->0) =     -249.76137530


--------------------------------------------------------------------------------------------------------




--------------------------------------- Iteration      1(   8)  ---------------------------------------


    POTLOK:  cpu time    0.0433: real time    0.0435
    SETDIJ:  cpu time    0.0287: real time    0.0288
    EDDIAG:  cpu time    0.2846: real time    0.2858
  RMM-DIIS:  cpu time    0.7114: real time    0.7165
    ORTHCH:  cpu time    0.0868: real time    0.0871
       DOS:  cpu time    0.0003: real time    0.0003
    CHARGE:  cpu time    0.0383: real time    0.0384
    MIXING:  cpu time    0.0011: real time    0.0011
    --------------------------------------------
      LOOP:  cpu time    1.1945: real time    1.2015

 eigenvalue-minimisations  :  1358
 total energy-change (2. order) :-0.2203663E+01  (-0.5447027E+00)
 number of electron     400.0002244 magnetization       5.7835692
 augmentation part      -25.6510345 magnetization       2.5137949

 Broyden mixing:
  rms(total) = 0.52006E+00    rms(broyden)= 0.52002E+00
  rms(prec ) = 0.64419E+00
  weight for this iteration     100.00

 eigenvalues of (default mixing * dielectric matrix)
  average eigenvalue GAMMA=   1.3167
  2.4555  0.8486  0.6460

 Free energy of the ion-electron system (eV)
  ---------------------------------------------------
  alpha Z        PSCENC =       316.14514549
  Ewald energy   TEWEN  =    -12947.38204056
  -Hartree energ DENC   =     -1676.49724431
  -exchange      EXHF   =         0.00000000
  -V(xc)+E(xc)   XCENC  =      -743.24685402
  PAW double counting   =    144222.70706234  -142499.35868990
  entropy T*S    EENTRO =        -0.04951052
  eigenvalues    EBANDS =      2769.56082680
  atomic energy  EATOM  =     10306.12861560
  Solvation  Ediel_sol  =         0.00000000
  ---------------------------------------------------
  free energy    TOTEN  =      -251.99268908 eV

  energy without entropy =     -251.94317856  energy(sigma->0) =     -251.96793382


--------------------------------------------------------------------------------------------------------




--------------------------------------- Iteration      1(   9)  ---------------------------------------


    POTLOK:  cpu time    0.0436: real time    0.0438
    SETDIJ:  cpu time    0.0287: real time    0.0288
    EDDIAG:  cpu time    0.2847: real time    0.2859
  RMM-DIIS:  cpu time    0.7404: real time    0.7456
    ORTHCH:  cpu time    0.0867: real time    0.0871
       DOS:  cpu time    0.0003: real time    0.0003
    CHARGE:  cpu time    0.0383: real time    0.0385
    MIXING:  cpu time    0.0013: real time    0.0013
    --------------------------------------------
      LOOP:  cpu time    1.2240: real time    1.2312

 eigenvalue-minimisations  :  1423
 total energy-change (2. order) :-0.1896648E+00  (-0.9188266E-01)
 number of electron     400.0002246 magnetization       3.7183216
 augmentation part      -25.6687783 magnetization       2.0525645

 Broyden mixing:
  rms(total) = 0.22781E+00    rms(broyden)= 0.22779E+00
  rms(prec ) = 0.28104E+00
  weight for this iteration     100.00

 eigenvalues of (default mixing * dielectric matrix)
  average eigenvalue GAMMA=   1.2533
  2.4381  1.2197  0.6778  0.6778

 Free energy of the ion-electron system (eV)
  ---------------------------------------------------
  alpha Z        PSCENC =       316.14514549
  Ewald energy   TEWEN  =    -12947.38204056
  -Hartree energ DENC   =     -1672.40106892
  -exchange      EXHF   =         0.00000000
  -V(xc)+E(xc)   XCENC  =      -742.42690913
  PAW double counting   =    153315.72604188  -151593.59876232
  entropy T*S    EENTRO =        -0.03934908
  eigenvalues    EBANDS =      2765.66597313
  atomic energy  EATOM  =     10306.12861560
  Solvation  Ediel_sol  =         0.00000000
  ---------------------------------------------------
  free energy    TOTEN  =      -252.18235392 eV

  energy without entropy =     -252.14300483  energy(sigma->0) =     -252.16267938


--------------------------------------------------------------------------------------------------------




--------------------------------------- Iteration      1(  10)  ---------------------------------------


    POTLOK:  cpu time    0.0434: real time    0.0436
    SETDIJ:  cpu time    0.0287: real time    0.0288
    EDDIAG:  cpu time    0.2848: real time    0.2860
  RMM-DIIS:  cpu time    0.7386: real time    0.7439
    ORTHCH:  cpu time    0.0868: real time    0.0871
       DOS:  cpu time    0.0003: real time    0.0003
    CHARGE:  cpu time    0.0383: real time    0.0384
    MIXING:  cpu time    0.0014: real time    0.0014
    --------------------------------------------
      LOOP:  cpu time    1.2223: real time    1.2296

 eigenvalue-minimisations  :  1427
 total energy-change (2. order) :-0.1474123E-01  (-0.1899010E-01)
 number of electron     400.0002247 magnetization       2.2525137
 augmentation part      -25.6873914 magnetization       1.0110837

 Broyden mixing:
  rms(total) = 0.12781E+00    rms(broyden)= 0.12781E+00
  rms(prec ) = 0.14135E+00
  weight for this iteration     100.00

 eigenvalues of (default mixing * dielectric matrix)
  average eigenvalue GAMMA=   1.2455
  2.4239  1.5522  0.9486  0.6513  0.6513

 Free energy of the ion-electron system (eV)
  ---------------------------------------------------
  alpha Z        PSCENC =       316.14514549
  Ewald energy   TEWEN  =    -12947.38204056
  -Hartree energ DENC   =     -1667.56943355
  -exchange      EXHF   =         0.00000000
  -V(xc)+E(xc)   XCENC  =      -742.40913600
  PAW double counting   =    154031.91244377  -152309.80446960
  entropy T*S    EENTRO =        -0.03937940
  eigenvalues    EBANDS =      2760.82115909
  atomic energy  EATOM  =     10306.12861560
  Solvation  Ediel_sol  =         0.00000000
  ---------------------------------------------------
  free energy    TOTEN  =      -252.19709515 eV

  energy without entropy =     -252.15771575  energy(sigma->0) =     -252.17740545


--------------------------------------------------------------------------------------------------------




--------------------------------------- Iteration      1(  11)  ---------------------------------------


    POTLOK:  cpu time    0.0433: real time    0.0434
    SETDIJ:  cpu time    0.0287: real time    0.0288
    EDDIAG:  cpu time    0.2855: real time    0.2868
  RMM-DIIS:  cpu time    0.7598: real time    0.7650
    ORTHCH:  cpu time    0.0870: real time    0.0874
       DOS:  cpu time    0.0003: real time    0.0003
    CHARGE:  cpu time    0.0384: real time    0.0385
    MIXING:  cpu time    0.0015: real time    0.0015
    --------------------------------------------
      LOOP:  cpu time    1.2444: real time    1.2517

 eigenvalue-minimisations  :  1454
 total energy-change (2. order) :-0.2042303E-01  (-0.4756381E-02)
 number of electron     400.0002248 magnetization       1.1464349
 augmentation part      -25.6979508 magnetization       0.2968170

 Broyden mixing:
  rms(total) = 0.72172E-01    rms(broyden)= 0.72169E-01
  rms(prec ) = 0.76650E-01
  weight for this iteration     100.00

 eigenvalues of (default mixing * dielectric matrix)
  average eigenvalue GAMMA=   1.3404
  2.3721  2.3721  1.2077  0.8355  0.6332  0.6218

 Free energy of the ion-electron system (eV)
  ---------------------------------------------------
  alpha Z        PSCENC =       316.14514549
  Ewald energy   TEWEN  =    -12947.38204056
  -Hartree energ DENC   =     -1665.47465837
  -exchange      EXHF   =         0.00000000
  -V(xc)+E(xc)   XCENC  =      -742.35524822
  PAW double counting   =    153986.05382490  -152263.94815419
  entropy T*S    EENTRO =        -0.04039739
  eigenvalues    EBANDS =      2758.65539455
  atomic energy  EATOM  =     10306.12861560
  Solvation  Ediel_sol  =         0.00000000
  ---------------------------------------------------
  free energy    TOTEN  =      -252.21751819 eV

  energy without entropy =     -252.17712079  energy(sigma->0) =     -252.19731949


--------------------------------------------------------------------------------------------------------




--------------------------------------- Iteration      1(  12)  ---------------------------------------


    POTLOK:  cpu time    0.0432: real time    0.0434
    SETDIJ:  cpu time    0.0287: real time    0.0288
    EDDIAG:  cpu time    0.2852: real time    0.2865
  RMM-DIIS:  cpu time    0.7627: real time    0.7681
    ORTHCH:  cpu time    0.0872: real time    0.0876
       DOS:  cpu time    0.0003: real time    0.0003
    CHARGE:  cpu time    0.0383: real time    0.0384
    MIXING:  cpu time    0.0016: real time    0.0016
    --------------------------------------------
      LOOP:  cpu time    1.2473: real time    1.2546

 eigenvalue-minimisations  :  1466
 total energy-change (2. order) :-0.9192355E-02  (-0.1287509E-02)
 number of electron     400.0002248 magnetization       0.5828687
 augmentation part      -25.7009422 magnetization       0.0610493

 Broyden mixing:
  rms(total) = 0.30553E-01    rms(broyden)= 0.30550E-01
  rms(prec ) = 0.32303E-01
  weight for this iteration     100.00

 eigenvalues of (default mixing * dielectric matrix)
  average eigenvalue GAMMA=   1.3608
  2.5998  2.5998  1.3218  0.9299  0.8283  0.6389  0.6073

 Free energy of the ion-electron system (eV)
  ---------------------------------------------------
  alpha Z        PSCENC =       316.14514549
  Ewald energy   TEWEN  =    -12947.38204056
  -Hartree energ DENC   =     -1665.48429035
  -exchange      EXHF   =         0.00000000
  -V(xc)+E(xc)   XCENC  =      -742.25894223
  PAW double counting   =    153832.62420977  -152110.56028674
  entropy T*S    EENTRO =        -0.04301156
  eigenvalues    EBANDS =      2758.60389004
  atomic energy  EATOM  =     10306.12861560
  Solvation  Ediel_sol  =         0.00000000
  ---------------------------------------------------
  free energy    TOTEN  =      -252.22671054 eV

  energy without entropy =     -252.18369899  energy(sigma->0) =     -252.20520476


--------------------------------------------------------------------------------------------------------




--------------------------------------- Iteration      1(  13)  ---------------------------------------


    POTLOK:  cpu time    0.0433: real time    0.0434
    SETDIJ:  cpu time    0.0287: real time    0.0288
    EDDIAG:  cpu time    0.2848: real time    0.2860
  RMM-DIIS:  cpu time    0.7623: real time    0.7677
    ORTHCH:  cpu time    0.0868: real time    0.0872
       DOS:  cpu time    0.0003: real time    0.0003
    CHARGE:  cpu time    0.0383: real time    0.0384
    MIXING:  cpu time    0.0017: real time    0.0017
    --------------------------------------------
      LOOP:  cpu time    1.2461: real time    1.2535

 eigenvalue-minimisations  :  1474
 total energy-change (2. order) :-0.2471241E-02  (-0.3481003E-03)
 number of electron     400.0002248 magnetization       0.3150512
 augmentation part      -25.7016227 magnetization       0.0223317

 Broyden mixing:
  rms(total) = 0.12816E-01    rms(broyden)= 0.12812E-01
  rms(prec ) = 0.13826E-01
  weight for this iteration     100.00

 eigenvalues of (default mixing * dielectric matrix)
  average eigenvalue GAMMA=   1.3691
  2.9686  2.4563  1.5192  1.1082  0.9061  0.7510  0.6324  0.6109

 Free energy of the ion-electron system (eV)
  ---------------------------------------------------
  alpha Z        PSCENC =       316.14514549
  Ewald energy   TEWEN  =    -12947.38204056
  -Hartree energ DENC   =     -1665.57177085
  -exchange      EXHF   =         0.00000000
  -V(xc)+E(xc)   XCENC  =      -742.21120388
  PAW double counting   =    153654.56390396  -151932.52296587
  entropy T*S    EENTRO =        -0.04382745
  eigenvalues    EBANDS =      2758.66496179
  atomic energy  EATOM  =     10306.12861560
  Solvation  Ediel_sol  =         0.00000000
  ---------------------------------------------------
  free energy    TOTEN  =      -252.22918178 eV

  energy without entropy =     -252.18535433  energy(sigma->0) =     -252.20726806


--------------------------------------------------------------------------------------------------------




--------------------------------------- Iteration      1(  14)  ---------------------------------------


    POTLOK:  cpu time    0.0433: real time    0.0435
    SETDIJ:  cpu time    0.0287: real time    0.0288
    EDDIAG:  cpu time    0.2858: real time    0.2870
  RMM-DIIS:  cpu time    0.7529: real time    0.7583
    ORTHCH:  cpu time    0.0870: real time    0.0874
       DOS:  cpu time    0.0003: real time    0.0003
    CHARGE:  cpu time    0.0383: real time    0.0385
    MIXING:  cpu time    0.0019: real time    0.0019
    --------------------------------------------
      LOOP:  cpu time    1.2383: real time    1.2456

 eigenvalue-minimisations  :  1464
 total energy-change (2. order) :-0.6323061E-03  (-0.9994083E-04)
 number of electron     400.0002248 magnetization       0.1722747
 augmentation part      -25.7013835 magnetization       0.0073001

 Broyden mixing:
  rms(total) = 0.64874E-02    rms(broyden)= 0.64846E-02
  rms(prec ) = 0.69622E-02
  weight for this iteration     100.00

 eigenvalues of (default mixing * dielectric matrix)
  average eigenvalue GAMMA=   1.3954
  3.2429  2.3689  1.8559  1.3079  0.9290  0.9290  0.6598  0.6598  0.6052

 Free energy of the ion-electron system (eV)
  ---------------------------------------------------
  alpha Z        PSCENC =       316.14514549
  Ewald energy   TEWEN  =    -12947.38204056
  -Hartree energ DENC   =     -1665.67443155
  -exchange      EXHF   =         0.00000000
  -V(xc)+E(xc)   XCENC  =      -742.19073653
  PAW double counting   =    153602.79883927  -151880.77425111
  entropy T*S    EENTRO =        -0.04395356
  eigenvalues    EBANDS =      2758.76299888
  atomic energy  EATOM  =     10306.12861560
  Solvation  Ediel_sol  =         0.00000000
  ---------------------------------------------------
  free energy    TOTEN  =      -252.22981409 eV

  energy without entropy =     -252.18586053  energy(sigma->0) =     -252.20783731


--------------------------------------------------------------------------------------------------------




--------------------------------------- Iteration      1(  15)  ---------------------------------------


    POTLOK:  cpu time    0.0433: real time    0.0434
    SETDIJ:  cpu time    0.0287: real time    0.0288
    EDDIAG:  cpu time    0.2856: real time    0.2868
  RMM-DIIS:  cpu time    0.7516: real time    0.7569
    ORTHCH:  cpu time    0.0873: real time    0.0876
       DOS:  cpu time    0.0003: real time    0.0003
    CHARGE:  cpu time    0.0382: real time    0.0384
    MIXING:  cpu time    0.0020: real time    0.0020
    --------------------------------------------
      LOOP:  cpu time    1.2370: real time    1.2443

 eigenvalue-minimisations  :  1445
 total energy-change (2. order) :-0.2025505E-03  (-0.3472038E-04)
 number of electron     400.0002248 magnetization       0.0801367
 augmentation part      -25.7011398 magnetization      -0.0112685

 Broyden mixing:
  rms(total) = 0.36126E-02    rms(broyden)= 0.36108E-02
  rms(prec ) = 0.37803E-02
  weight for this iteration     100.00

 eigenvalues of (default mixing * dielectric matrix)
  average eigenvalue GAMMA=   1.4432
  3.5623  2.3155  2.3155  1.4939  1.1213  0.8650  0.8650  0.6074  0.6431  0.6431

 Free energy of the ion-electron system (eV)
  ---------------------------------------------------
  alpha Z        PSCENC =       316.14514549
  Ewald energy   TEWEN  =    -12947.38204056
  -Hartree energ DENC   =     -1665.73363540
  -exchange      EXHF   =         0.00000000
  -V(xc)+E(xc)   XCENC  =      -742.18465368
  PAW double counting   =    153595.27673306  -151873.25973539
  entropy T*S    EENTRO =        -0.04406706
  eigenvalues    EBANDS =      2758.82362131
  atomic energy  EATOM  =     10306.12861560
  Solvation  Ediel_sol  =         0.00000000
  ---------------------------------------------------
  free energy    TOTEN  =      -252.23001664 eV

  energy without entropy =     -252.18594957  energy(sigma->0) =     -252.20798311


--------------------------------------------------------------------------------------------------------




--------------------------------------- Iteration      1(  16)  ---------------------------------------


    POTLOK:  cpu time    0.0433: real time    0.0435
    SETDIJ:  cpu time    0.0287: real time    0.0288
    EDDIAG:  cpu time    0.2855: real time    0.2867
  RMM-DIIS:  cpu time    0.7507: real time    0.7558
    ORTHCH:  cpu time    0.0866: real time    0.0869
       DOS:  cpu time    0.0003: real time    0.0003
    CHARGE:  cpu time    0.0383: real time    0.0385
    MIXING:  cpu time    0.0021: real time    0.0022
    --------------------------------------------
      LOOP:  cpu time    1.2355: real time    1.2426

 eigenvalue-minimisations  :  1425
 total energy-change (2. order) :-0.7247046E-04  (-0.1434636E-04)
 number of electron     400.0002248 magnetization       0.0309480
 augmentation part      -25.7009775 magnetization      -0.0108770

 Broyden mixing:
  rms(total) = 0.18289E-02    rms(broyden)= 0.18274E-02
  rms(prec ) = 0.19245E-02
  weight for this iteration     100.00

 eigenvalues of (default mixing * dielectric matrix)
  average eigenvalue GAMMA=   1.4638
  3.7857  2.4508  2.4508  1.6498  1.2487  0.9343  0.9343  0.7688  0.6087  0.6351
  0.6351

 Free energy of the ion-electron system (eV)
  ---------------------------------------------------
  alpha Z        PSCENC =       316.14514549
  Ewald energy   TEWEN  =    -12947.38204056
  -Hartree energ DENC   =     -1665.74875353
  -exchange      EXHF   =         0.00000000
  -V(xc)+E(xc)   XCENC  =      -742.18613646
  PAW double counting   =    153590.04233218  -151868.02574722
  entropy T*S    EENTRO =        -0.04404576
  eigenvalues    EBANDS =      2758.84054116
  atomic energy  EATOM  =     10306.12861560
  Solvation  Ediel_sol  =         0.00000000
  ---------------------------------------------------
  free energy    TOTEN  =      -252.23008911 eV

  energy without entropy =     -252.18604335  energy(sigma->0) =     -252.20806623


--------------------------------------------------------------------------------------------------------




--------------------------------------- Iteration      1(  17)  ---------------------------------------


    POTLOK:  cpu time    0.0434: real time    0.0439
    SETDIJ:  cpu time    0.0287: real time    0.0288
    EDDIAG:  cpu time    0.2853: real time    0.2865
  RMM-DIIS:  cpu time    0.6289: real time    0.6332
    ORTHCH:  cpu time    0.0866: real time    0.0869
       DOS:  cpu time    0.0003: real time    0.0003
    CHARGE:  cpu time    0.0384: real time    0.0385
    MIXING:  cpu time    0.0023: real time    0.0023
    --------------------------------------------
      LOOP:  cpu time    1.1138: real time    1.1204

 eigenvalue-minimisations  :  1177
 total energy-change (2. order) :-0.1461661E-04  (-0.4115120E-05)
 number of electron     400.0002248 magnetization       0.0115687
 augmentation part      -25.7009414 magnetization      -0.0048717

 Broyden mixing:
  rms(total) = 0.80028E-03    rms(broyden)= 0.79922E-03
  rms(prec ) = 0.89419E-03
  weight for this iteration     100.00

 eigenvalues of (default mixing * dielectric matrix)
  average eigenvalue GAMMA=   1.4725
  3.9383  2.5215  2.5215  1.8485  1.3765  1.0946  0.9262  0.8548  0.7170  0.6299
  0.6299  0.6110

 Free energy of the ion-electron system (eV)
  ---------------------------------------------------
  alpha Z        PSCENC =       316.14514549
  Ewald energy   TEWEN  =    -12947.38204056
  -Hartree energ DENC   =     -1665.74627924
  -exchange      EXHF   =         0.00000000
  -V(xc)+E(xc)   XCENC  =      -742.18948296
  PAW double counting   =    153585.23314133  -151863.21399745
  entropy T*S    EENTRO =        -0.04405868
  eigenvalues    EBANDS =      2758.83885275
  atomic energy  EATOM  =     10306.12861560
  Solvation  Ediel_sol  =         0.00000000
  ---------------------------------------------------
  free energy    TOTEN  =      -252.23010373 eV

  energy without entropy =     -252.18604504  energy(sigma->0) =     -252.20807438


--------------------------------------------------------------------------------------------------------




--------------------------------------- Iteration      1(  18)  ---------------------------------------


    POTLOK:  cpu time    0.0434: real time    0.0435
    SETDIJ:  cpu time    0.0287: real time    0.0288
    EDDIAG:  cpu time    0.2854: real time    0.2867
  RMM-DIIS:  cpu time    0.4460: real time    0.4489
    ORTHCH:  cpu time    0.0867: real time    0.0871
       DOS:  cpu time    0.0003: real time    0.0003
    --------------------------------------------
      LOOP:  cpu time    0.8905: real time    0.8952

 eigenvalue-minimisations  :   769
 total energy-change (2. order) :-0.2493034E-06  (-0.9205195E-06)
 number of electron     400.0002248 magnetization       0.0115687
 augmentation part      -25.7009414 magnetization      -0.0048717

 Free energy of the ion-electron system (eV)
  ---------------------------------------------------
  alpha Z        PSCENC =       316.14514549
  Ewald energy   TEWEN  =    -12947.38204056
  -Hartree energ DENC   =     -1665.73824872
  -exchange      EXHF   =         0.00000000
  -V(xc)+E(xc)   XCENC  =      -742.19193249
  PAW double counting   =    153581.84376279  -151859.82234760
  entropy T*S    EENTRO =        -0.04405024
  eigenvalues    EBANDS =      2758.83099176
  atomic energy  EATOM  =     10306.12861560
  Solvation  Ediel_sol  =         0.00000000
  ---------------------------------------------------
  free energy    TOTEN  =      -252.23010397 eV

  energy without entropy =     -252.18605373  energy(sigma->0) =     -252.20807885


--------------------------------------------------------------------------------------------------------




 average (electrostatic) potential at core
  the test charge radii are     0.9892
  (the norm of the test charge is              1.0000)
       1 -75.4446       2 -75.3488       3 -75.2699       4 -75.2022       5 -75.6959
       6 -75.3565       7 -75.2142       8 -75.2286       9 -75.7159      10 -75.4986
      11 -75.5238      12 -75.0087      13 -75.3265      14 -75.2314      15 -75.3047
      16 -75.6645      17 -75.7078      18 -75.4356      19 -75.6769      20 -75.2956
      21 -75.4352      22 -75.1026      23 -75.4038      24 -75.4741      25 -75.2951
      26 -75.4985      27 -75.6943      28 -75.3570      29 -75.2854      30 -75.4571
      31 -75.3701      32 -75.5937      33 -75.6735      34 -75.3373      35 -75.0373
      36 -75.3245      37 -76.0003      38 -75.2040      39 -75.1110      40 -75.8986
      41 -75.2735      42 -75.5555      43 -75.3407      44 -75.2714      45 -75.6076
      46 -75.2572      47 -75.4328      48 -75.4548      49 -75.6164      50 -75.3376
      51 -75.4166      52 -75.6082      53 -75.7986      54 -75.2185      55 -75.2616
      56 -75.2766      57 -75.3673      58 -75.3440      59 -75.2529      60 -75.6906
      61 -75.4971      62 -75.6963      63 -75.2124      64 -75.6702      65 -75.7025
      66 -75.6024      67 -75.2225      68 -75.4858      69 -75.3076      70 -75.2119
      71 -75.2865      72 -75.5361      73 -75.5368      74 -75.3547      75 -75.1387
      76 -75.7752      77 -75.7859      78 -75.3419      79 -75.3321      80 -75.2912
      81 -75.2091      82 -75.6572      83 -75.3637      84 -75.4542      85 -75.5837
      86 -75.5599      87 -75.5751      88 -75.4542      89 -75.6683      90 -75.5809
      91 -75.9494      92 -75.0902      93 -75.5999      94 -75.7889      95 -75.3074
      96 -75.3032      97 -75.2696      98 -75.3304      99 -75.5875     100 -75.4050
 
 
 
 E-fermi :  14.1844     XC(G=0): -12.1878     alpha+bet :-22.5249


 spin component 1

 k-point     1 :       0.0000    0.0000    0.0000
  band No.  band energies     occupation 
      1      -4.8504      1.00000
      2      -3.7003      1.00000
      3      -3.5507      1.00000
      4      -3.4541      1.00000
      5      -2.9936      1.00000
      6      -2.8511      1.00000
[...]
   -.497E+02 -.128E+02 -.146E+02   0.515E+02 0.127E+02 0.140E+02   -.175E+01 0.230E+00 0.463E+00   0.773E-03 0.983E-03 0.614E-04
   -.701E+02 0.972E+00 0.499E+02   0.726E+02 -.122E+01 -.517E+02   -.144E+01 0.220E+00 0.309E-01   0.767E-03 0.456E-03 0.634E-03
   0.831E+02 -.154E+02 -.200E+01   -.804E+02 0.165E+02 0.195E+01   -.862E+01 -.985E+00 0.337E-01   -.565E-03 0.997E-03 0.921E-06
   0.459E+02 0.364E+02 -.232E+02   -.471E+02 -.370E+02 0.235E+02   0.117E+00 0.182E+00 0.191E+00   -.335E-03 0.559E-03 -.417E-04
   0.544E+02 0.308E+02 0.254E+02   -.545E+02 -.326E+02 -.258E+02   -.145E+00 0.964E+00 -.792E+00   -.179E-03 -.113E-03 -.277E-03
   0.731E+02 -.297E+02 0.173E+01   -.732E+02 0.303E+02 -.251E+01   -.313E+00 0.611E+00 0.404E+00   0.244E-04 -.361E-03 -.525E-03
   0.630E+02 0.354E+02 -.794E+02   -.638E+02 -.371E+02 0.767E+02   0.378E+00 0.680E+00 0.776E+01   -.675E-03 0.589E-03 -.378E-03
   -.652E+02 0.670E+02 0.384E+01   0.612E+02 -.648E+02 -.347E+01   0.101E+02 -.834E+01 -.618E+00   0.502E-03 -.811E-04 0.749E-04
   -.365E+02 0.733E+02 -.169E+02   0.369E+02 -.703E+02 0.123E+02   0.170E+00 -.830E+01 0.923E+01   -.201E-03 -.308E-04 0.248E-03
   0.825E+02 -.391E+02 -.510E+02   -.840E+02 0.395E+02 0.476E+02   0.722E+00 -.120E+00 0.857E+01   -.335E-03 0.248E-03 -.506E-03
   -.237E+02 -.262E+01 -.171E+02   0.235E+02 0.231E+01 0.184E+02   0.311E+00 0.506E+00 -.112E+01   0.510E-03 0.121E-02 -.584E-03
   -.858E+02 0.293E+02 -.812E+01   0.827E+02 -.300E+02 0.754E+01   0.806E+01 0.630E+00 0.540E+00   0.710E-03 -.899E-03 -.337E-03
   -.756E+02 -.287E+02 -.527E+02   0.767E+02 0.295E+02 0.505E+02   -.791E+00 -.624E+00 0.726E+01   0.273E-03 -.894E-03 0.622E-03
   0.106E+03 0.390E+02 -.565E+02   -.105E+03 -.354E+02 0.539E+02   -.705E+01 -.860E+01 0.822E+01   -.542E-03 0.456E-03 -.141E-03
   0.110E+03 0.646E+02 0.308E+01   -.106E+03 -.647E+02 -.261E+01   -.983E+01 -.571E+00 -.483E+00   -.594E-03 0.299E-03 0.193E-03
   -.730E+01 -.910E+02 -.639E+01   0.723E+01 0.897E+02 0.770E+01   0.194E-02 0.750E+01 -.132E+01   0.908E-03 0.649E-04 0.687E-03
   0.162E+02 -.637E+01 -.524E+02   -.205E+02 0.671E+01 0.503E+02   0.879E+01 -.786E-01 0.771E+01   0.619E-04 -.829E-03 0.471E-03
   0.585E+01 -.374E+02 0.222E+02   -.354E+01 0.375E+02 -.200E+02   -.782E+01 0.854E-01 -.723E+01   -.368E-03 0.239E-03 -.712E-03
   -.552E+02 -.780E+02 -.574E+01   0.559E+02 0.798E+02 0.552E+01   -.707E+00 -.394E+00 0.526E+00   0.689E-03 -.429E-03 0.720E-03
   -.948E+01 -.730E+02 0.665E+01   0.968E+01 0.752E+02 -.696E+01   -.802E-01 -.807E+00 -.390E-01   0.675E-03 -.235E-04 0.556E-03
   -.220E+02 -.426E+02 -.799E+02   0.227E+02 0.392E+02 0.777E+02   -.576E+00 0.939E+01 0.757E+01   -.325E-03 0.910E-03 -.802E-03
   0.594E+02 -.938E+02 0.169E+01   -.605E+02 0.916E+02 -.190E+01   0.561E+00 0.734E+01 0.156E+00   -.243E-03 -.127E-03 0.372E-03
   0.596E+02 0.126E+02 0.655E+01   -.611E+02 -.137E+02 -.646E+01   0.984E+00 0.829E+00 -.358E-01   -.295E-04 -.561E-03 -.279E-04
   -.750E+01 -.103E+02 -.717E+01   0.697E+01 0.983E+01 0.661E+01   0.139E+00 -.189E-01 0.324E+00   0.729E-03 0.112E-02 0.584E-04
   0.620E+02 0.114E+03 -.132E+02   -.625E+02 -.110E+03 0.134E+02   -.402E+00 -.922E+01 0.105E+00   -.792E-03 -.237E-03 0.159E-03
   -.264E+02 -.499E+02 0.553E+01   0.278E+02 0.483E+02 -.491E+01   -.109E+01 0.698E+01 0.222E+00   0.891E-04 -.414E-03 -.658E-03
   0.490E+02 -.530E+01 -.185E+01   -.504E+02 0.197E+01 0.218E+01   0.147E+01 0.872E+01 -.474E+00   -.844E-03 0.104E-02 -.220E-03
   0.258E+02 0.576E+02 -.203E+02   -.256E+02 -.592E+02 0.213E+02   0.626E+00 0.554E+00 -.321E+00   -.233E-03 -.947E-04 -.208E-03
   -.312E+02 0.205E+02 0.452E+02   0.315E+02 -.203E+02 -.466E+02   -.225E+00 0.708E-01 0.840E+00   -.152E-03 0.748E-03 0.421E-03
   0.450E+02 0.437E+02 -.299E+01   -.463E+02 -.456E+02 0.313E+01   0.113E+01 0.437E+00 0.319E+00   -.515E-04 -.721E-03 0.342E-03
   -.567E+02 -.136E+01 0.132E+02   0.572E+02 0.862E+00 -.128E+02   0.248E+00 -.263E-01 -.148E+00   0.971E-03 0.811E-03 0.449E-03
   -.720E+02 -.122E+02 -.518E+02   0.734E+02 0.123E+02 0.533E+02   0.885E-01 0.405E+00 0.239E+00   0.659E-03 0.925E-03 -.830E-03
   0.633E+02 -.192E+02 0.107E+02   -.641E+02 0.190E+02 -.106E+02   -.285E+00 0.172E+00 0.313E+00   -.746E-03 0.456E-03 0.579E-03
   -.977E+02 0.589E+02 -.198E+02   0.956E+02 -.597E+02 0.204E+02   0.764E+01 0.525E-01 0.328E+00   0.430E-03 -.796E-04 0.280E-03
   0.912E+02 0.386E+02 -.261E+01   -.889E+02 -.393E+02 0.274E+01   -.816E+01 -.264E+00 -.333E-01   -.355E-03 0.718E-04 0.227E-04
   -.139E+02 -.598E+02 0.436E+02   0.139E+02 0.587E+02 -.414E+02   0.393E+00 0.687E+01 -.784E+01   0.746E-03 -.109E-02 0.347E-03
   0.679E+02 0.790E+01 -.157E+02   -.695E+02 -.673E+01 0.164E+02   0.357E+00 -.116E+01 -.378E+00   -.254E-03 0.456E-03 -.450E-03
   0.769E+02 0.718E+02 0.581E+02   -.776E+02 -.677E+02 -.562E+02   0.291E+00 -.965E+01 -.788E+01   -.189E-03 -.222E-04 -.281E-03
   0.554E+02 -.555E+02 0.239E+00   -.560E+02 0.568E+02 0.406E+00   0.627E+00 -.196E+00 -.419E+00   -.535E-03 -.196E-03 0.859E-03
   -.147E+02 0.109E+03 0.765E+01   0.141E+02 -.106E+03 -.875E+01   0.336E+00 -.764E+01 0.944E+00   -.470E-03 -.165E-03 0.340E-03
   -.223E+02 0.470E+02 0.318E+02   0.228E+02 -.482E+02 -.281E+02   -.220E+00 0.559E+00 -.937E+01   -.253E-03 0.771E-03 -.118E-03
   -.650E+02 -.107E+03 -.126E+02   0.667E+02 0.107E+03 0.132E+02   -.982E+00 0.703E+01 0.801E-01   0.595E-03 -.162E-03 0.295E-03
   -.160E+01 0.951E+02 -.826E+01   -.144E+01 -.945E+02 0.789E+01   0.849E+01 -.649E+01 0.561E+00   -.195E-03 -.528E-03 0.171E-03
   0.331E+02 0.325E+02 -.807E+01   -.338E+02 -.336E+02 0.808E+01   0.432E+00 0.101E+01 -.340E+00   -.526E-03 0.956E-03 -.113E-03
   -.959E+02 0.491E+02 0.774E+01   0.946E+02 -.505E+02 -.837E+01   0.719E+01 0.865E+00 0.801E+00   0.754E-03 0.590E-03 0.238E-03
   -.871E+02 -.109E+02 0.393E+02   0.885E+02 0.109E+02 -.356E+02   -.798E+00 -.336E+00 -.867E+01   0.489E-03 -.910E-03 -.434E-03
   -.250E+02 0.327E+02 0.325E+02   0.257E+02 -.336E+02 -.334E+02   -.152E+00 0.235E+00 0.208E+00   0.493E-03 0.940E-04 0.958E-04
   -.257E+02 0.485E+02 -.217E+02   0.265E+02 -.496E+02 0.224E+02   -.784E-01 0.910E-01 -.566E+00   0.470E-03 0.393E-03 -.145E-03
   -.186E+02 -.181E+02 -.391E+02   0.189E+02 0.187E+02 0.348E+02   -.142E+00 -.748E-01 0.943E+01   0.418E-03 -.498E-03 0.572E-05
   0.938E+02 0.813E+02 -.554E+02   -.896E+02 -.790E+02 0.529E+02   -.961E+01 -.858E+01 0.884E+01   -.829E-03 -.639E-03 0.115E-03
   -.295E+02 0.936E+02 0.310E+01   0.330E+02 -.927E+02 -.333E+01   -.785E+01 -.701E+01 0.454E+00   0.591E-03 -.514E-03 0.305E-03
   -.114E+03 -.941E+01 0.741E-01   0.112E+03 0.979E+01 0.530E+00   0.759E+01 -.761E+00 -.785E+00   0.263E-03 -.724E-03 0.106E-03
   0.627E+02 0.161E+02 0.294E+02   -.635E+02 -.163E+02 -.305E+02   -.331E+00 0.648E+00 0.658E+00   -.449E-03 0.175E-03 0.852E-04
   -.647E+02 -.165E+02 -.129E+02   0.615E+02 0.175E+02 0.134E+02   0.859E+01 -.899E+00 -.459E+00   -.198E-03 0.900E-03 -.253E-03
   -.203E+02 0.833E+02 -.557E+02   0.205E+02 -.811E+02 0.529E+02   0.189E+00 -.805E+01 0.854E+01   0.769E-03 -.370E-03 0.110E-03
   -.276E+02 -.398E+02 -.199E+01   0.279E+02 0.411E+02 0.313E+01   0.271E+00 -.457E+00 -.218E+00   0.491E-03 0.336E-03 -.676E-03
   -.654E+02 -.239E+02 0.621E+00   0.624E+02 0.253E+02 -.789E+00   0.907E+01 -.908E+00 0.250E+00   0.416E-03 0.399E-03 -.677E-03
   -.188E+02 0.260E+02 0.456E+01   0.193E+02 -.269E+02 -.374E+01   -.424E+00 0.719E+00 -.549E+00   0.525E-03 -.833E-03 0.134E-03
   -.439E+02 0.282E+02 0.213E+02   0.452E+02 -.251E+02 -.222E+02   -.741E+00 -.872E+01 0.707E+00   -.181E-03 0.706E-03 0.546E-03
   -.131E+02 0.814E+02 -.972E+01   0.132E+02 -.797E+02 0.914E+01   -.104E+00 -.796E+01 0.679E-01   0.757E-03 0.578E-03 -.945E-04
   -.113E+03 0.458E+01 0.296E+01   0.113E+03 -.578E+01 -.286E+01   0.631E+01 0.163E+01 -.458E-02   0.679E-03 0.512E-03 -.315E-03
   -.618E+01 -.109E+02 0.600E+01   0.583E+01 0.117E+02 -.560E+01   0.329E+00 -.790E+00 -.153E+00   0.758E-03 0.526E-03 0.542E-03
   -.113E+03 0.225E+02 0.124E+01   0.110E+03 -.186E+02 -.224E+01   0.818E+01 -.898E+01 0.105E+01   0.469E-03 -.768E-03 -.799E-03
   -.151E+02 0.426E+02 -.443E+01   0.156E+02 -.437E+02 0.534E+01   -.256E+00 0.462E-01 -.197E+00   0.712E-03 0.513E-03 0.566E-04
   -.624E+02 -.129E+02 0.832E+01   0.616E+02 0.115E+02 -.885E+01   0.681E+01 0.103E+01 0.528E+00   -.488E-03 -.701E-03 -.289E-03
   0.694E+02 -.161E+02 0.743E+02   -.706E+02 0.122E+02 -.724E+02   0.746E+00 0.901E+01 -.745E+01   -.490E-03 0.599E-03 0.246E-03
   0.972E+02 -.884E+02 0.703E+01   -.943E+02 0.862E+02 -.738E+01   -.854E+01 0.817E+01 -.491E-01   -.578E-03 -.784E-04 -.537E-03
   0.971E+02 -.227E+02 0.587E+02   -.939E+02 0.240E+02 -.550E+02   -.920E+01 -.106E+01 -.874E+01   0.322E-05 -.107E-02 -.784E-05
   0.922E+02 0.164E+02 0.170E+02   -.903E+02 -.175E+02 -.174E+02   -.753E+01 0.118E+01 0.487E+00   -.677E-03 0.828E-03 0.216E-03
   0.419E+02 0.230E+02 0.425E+01   -.422E+02 -.233E+02 -.383E+01   0.601E-01 0.165E+00 -.182E+00   -.632E-03 0.669E-03 0.401E-04
   0.675E+02 -.299E+02 -.135E+02   -.674E+02 0.295E+02 0.140E+02   -.339E+00 0.687E+00 0.139E-01   -.244E-03 0.398E-03 -.726E-03
 -----------------------------------------------------------------------------------------------
   0.879E+01 0.190E+01 -.263E+01   -.156E-12 -.131E-12 0.107E-12   -.879E+01 -.191E+01 0.263E+01   0.435E-02 0.791E-02 -.887E-03
 
 
 POSITION                                       TOTAL-FORCE (eV/Angst)
 -----------------------------------------------------------------------------------
      8.16920      6.12690      2.04230         5.619023     -0.472160     -5.554280
      8.16920      8.16920      0.00000        -0.093483     -5.433362      5.407695
      6.12690      2.04230      4.08460         1.009857     -0.010507     -5.968825
      8.16920      2.04230      8.16920         0.011238      5.433862      5.675138
      4.08460      0.00000      4.08460        -0.355517      0.144484     -0.163527
      6.12690      8.16920      8.16920         0.182214     -0.123265     -0.735534
      6.12690      6.12690      4.08460         0.391246     -0.052410     -0.491451
      6.12690      6.12690      2.04230        -5.626327      4.851376     -0.490423
      4.08460      0.00000      2.04230         0.966400      0.309996      0.072915
      0.00000      0.00000      0.00000        -1.105477      0.660266     -4.917570
      2.04230      2.04230      4.08460        -6.365789     -0.127838     -0.426176
      8.16920      2.04230      4.08460         4.959082      4.935753     -0.427704
      0.00000      2.04230      8.16920        -0.572067      0.683012      0.477196
      8.16920      2.04230      6.12690         0.261055      5.817076     -0.591066
      0.00000      2.04230      6.12690        -0.369030      0.913775     -5.455344
      2.04230      0.00000      4.08460        -5.879193      0.358514     -0.032889
      0.00000      0.00000      6.12690        -0.358366     -0.019914      0.071357
      2.04230      2.04230      0.00000        -0.263419      1.063126     -0.116352
      4.08460      2.04230      4.08460         0.328726      0.826032     -0.610627
      6.12690      8.16920      4.08460         0.623605     -0.034643     -5.413606
      6.12690      8.16920      0.00000         0.889151     -0.609869      5.828811
      0.00000      4.08460      6.12690        -4.885467     -0.198317      0.304157
      6.12690      2.04230      0.00000         6.277961      0.466252      5.601078
      4.08460      6.12690      4.08460        -0.048361     -0.607217     -5.397327
      8.16920      0.00000      4.08460         5.168728     -0.093068     -5.605669
      0.00000      4.08460      2.04230        -5.336645      5.938543     -0.206509
      2.04230      0.00000      0.00000        -0.508764      0.366104     -0.637453
      2.04230      4.08460      4.08460        -5.675532      0.023288      0.349837
      4.08460      4.08460      0.00000        -0.113804      0.682884     -0.537109
      6.12690      0.00000      8.16920         0.109742      0.152361     -0.069935
      6.12690      0.00000      4.08460         1.034843     -0.030781     -1.775450
      2.04230      0.00000      8.16920        -5.923445      0.147324     -0.021335
      2.04230      8.16920      0.00000        -1.099502     -0.455215      0.441353
      2.04230      6.12690      4.08460        -0.266026     -0.798480     -1.226858
      2.04230      4.08460      2.04230        -0.428169      1.136005     -0.377804
      0.00000      8.16920      0.00000        -0.414256     -0.942698      5.113203
      4.08460      8.16920      2.04230         6.048232     -6.214503     -0.254169
      8.16920      6.12690      4.08460         0.506591     -5.271768      4.639341
      0.00000      2.04230      2.04230        -0.744140      0.343864      5.205691
      4.08460      0.00000      0.00000         0.117100      0.193305      0.150142
      6.12690      6.12690      0.00000         4.890156     -0.081251     -0.038875
      6.12690      4.08460      6.12690         0.280062      0.161465      5.143812
      0.00000      0.00000      2.04230        -5.814976     -4.957296      5.645377
      0.00000      6.12690      6.12690        -6.163675     -0.691347     -0.007765
      4.08460      2.04230      6.12690        -0.067557      6.130091     -0.017293
      2.04230      4.08460      6.12690         4.495702      0.261349      5.552238
      8.16920      2.04230      2.04230        -5.514633      0.138213     -5.045170
      6.12690      2.04230      6.12690         0.012553      1.396761      0.313101
      4.08460      2.04230      8.16920         0.112570      1.391020     -0.356738
      8.16920      0.00000      0.00000         0.112191      5.930239      5.433412
      2.04230      2.04230      8.16920        -0.498263      5.141307     -0.055184
      2.04230      6.12690      2.04230        -0.546350     -0.308508      0.054948
      4.08460      0.00000      8.16920        -0.395959     -0.476523     -0.231014
      0.00000      6.12690      8.16920        -0.929774     -5.649766      0.295861
      4.08460      4.08460      2.04230         0.279969      5.383274      0.842656
      0.00000      8.16920      8.16920        -0.001580      5.387715     -0.145603
      2.04230      6.12690      6.12690         0.835511     -1.071314      0.703554
      8.16920      8.16920      4.08460         0.101239      0.230037     -0.475472
      2.04230      6.12690      0.00000        -0.088608     -1.466391      0.458865
      6.12690      0.00000      6.12690         0.686313     -0.527273      0.298685
      6.12690      0.00000      0.00000         1.427979      0.590552      1.781225
      2.04230      0.00000      6.12690        -1.073348     -0.040000      0.414021
      6.12690      6.12690      6.12690         5.599117     -0.706935      0.912508
      2.04230      8.16920      2.04230        -5.893723     -1.006246      0.098021
      4.08460      4.08460      8.16920         0.372091      5.808015     -5.658955
      2.04230      0.00000      2.04230        -1.304565      0.007282      0.402534
      0.00000      6.12690      4.08460        -0.410462     -5.531892     -6.022739
      2.04230      2.04230      6.12690        -0.006799      1.156177      0.227242
      8.16920      6.12690      8.16920        -0.205883     -4.981354     -0.150808
      8.16920      8.16920      8.16920         0.261091     -0.600554     -5.646073
      6.12690      2.04230      8.16920         0.768944      6.090661      0.770293
      2.04230      6.12690      8.16920         5.440968     -5.860891      0.190815
      2.04230      8.16920      8.16920        -0.231749      0.004080     -0.322599
      6.12690      8.16920      6.12690         5.925511     -0.556232      0.171885
      6.12690      4.08460      0.00000         0.645694     -0.307373     -4.980847
      4.08460      8.16920      4.08460         0.621791     -0.681548     -0.697540
      4.08460      8.16920      0.00000         0.728007     -1.041414      0.112585
      4.08460      4.08460      4.08460         0.215144      0.560136      5.055091
      0.00000      6.12690      0.00000        -5.388139     -6.218292      6.323438
      6.12690      6.12690      8.16920        -4.383500     -6.115009      0.222811
      6.12690      4.08460      4.08460         5.747183     -0.371973     -0.181521
      2.04230      8.16920      4.08460        -1.156766      0.374546     -0.409780
      8.16920      0.00000      8.16920         5.427703      0.136346     -0.004586
      4.08460      6.12690      6.12690         0.418921     -5.807666      5.731031
      4.08460      2.04230      0.00000         0.572158      0.783811      0.927866
      4.08460      2.04230      2.04230         6.052247      0.500260      0.080583
      4.08460      6.12690      0.00000         0.141449     -0.228478      0.268794
      8.16920      0.00000      6.12690         0.540848     -5.563384     -0.188606
      4.08460      8.16920      8.16920        -0.034823     -6.210579     -0.507608
      6.12690      0.00000      2.04230         6.050510      0.427034      0.094485
      4.08460      0.00000      6.12690        -0.018292      0.032417      0.252038
      6.12690      4.08460      2.04230         5.205072     -5.059401      0.056562
      4.08460      8.16920      6.12690         0.221774     -1.051218      0.708443
      8.16920      4.08460      0.00000         5.960606     -0.313146     -0.003951
      0.00000      8.16920      4.08460        -0.433176      5.085302     -5.571213
      0.00000      2.04230      0.00000        -5.653539      5.961679     -0.394864
      2.04230      4.08460      0.00000        -5.995673      0.212440     -5.084224
      0.00000      8.16920      6.12690        -5.622505      0.161201      0.039317
      2.04230      8.16920      6.12690        -0.177382     -0.179490      0.237654
      2.04230      2.04230      2.04230        -0.211387      0.268153      0.544361
 -----------------------------------------------------------------------------------
    total drift:                               -0.000053     -0.000305      0.000067


--------------------------------------------------------------------------------------------------------



  FREE ENERGIE OF THE ION-ELECTRON SYSTEM (eV)
  ---------------------------------------------------
  free  energy   TOTEN  =      -252.23010397 eV

  energy  without entropy=     -252.18605373  energy(sigma->0) =     -252.20807885
 


--------------------------------------------------------------------------------------------------------


    POTLOK:  cpu time    0.0739: real time    0.0741


--------------------------------------------------------------------------------------------------------


     LOOP+:  cpu time   26.9182: real time   27.2801
    4ORBIT:  cpu time    0.0000: real time    0.0000

 total amount of memory used by VASP MPI-rank0    53807. kBytes
=======================================================================

   base      :      30000. kBytes
   nonlr-proj:       8139. kBytes
   fftplans  :       1377. kBytes
   grid      :       7520. kBytes
   one-center:        614. kBytes
   wavefun   :       6157. kBytes
 
  
  
 General timing and accounting informations for this job:
 ========================================================
  
                  Total CPU time used (sec):       27.904
                            User time (sec):       27.055
                          System time (sec):        0.849
                         Elapsed time (sec):       29.041
  
                   Maximum memory used (kb):      177960.
                   Average memory used (kb):           0.
  
                          Minor page faults:        56341
                          Major page faults:            0
                 Voluntary context switches:          846
