<?xml version="1.0" encoding="ISO-8859-1"?>
<modeling>
 <generator>
  <i name="program" type="string">vasp </i>
  <i name="version" type="string">5.4.4.18Apr17-6-g9f103f2a35  </i>
  <i name="subversion" type="string">(build Sep 16 2020 16:20:45) complex            parallel </i>
  <i name="platform" type="string">LinuxIFC </i>
  <i name="date" type="string">2021 08 05 </i>
  <i name="time" type="string">12:01:34 </i>
 </generator>
 <incar>
  <i type="string" name="PREC">normal</i>
  <i type="string" name="ALGO"> Fast</i>
  <i type="int" name="ISPIN">     2</i>
  <i type="int" name="NELM">    60</i>
  <i type="int" name="NELMIN">     4</i>
  <i type="int" name="IBRION">     1</i>
  <i name="EDIFF">      0.00001000</i>
  <i type="int" name="ISYM">     0</i>
  <i type="string" name="LREAL"> auto</i>
  <i type="int" name="ISMEAR">     0</i>
  <i name="SIGMA">      0.05000000</i>
  <i type="logical" name="LWAVE"> F  </i>
  <i type="logical" name="LCHARG"> F  </i>
  <v type="int" name="KPOINT_BSE">    -1     0     0     0</v>
  <i type="int" name="NELM">    60</i>
 </incar>
 <structure name="primitive_cell" >
  <crystal>
   <varray name="basis" >
    <v>      10.21149500       0.00000000       0.00000000 </v>
    <v>       0.00000000      10.21149500       0.00000000 </v>
    <v>       0.00000000       0.00000000      10.21149500 </v>
   </varray>
   <i name="volume">   1064.79986425 </i>
   <varray name="rec_basis" >
    <v>       0.09792885       0.00000000       0.00000000 </v>
    <v>       0.00000000       0.09792885       0.00000000 </v>
    <v>       0.00000000       0.00000000       0.09792885 </v>
   </varray>
  </crystal>
  <varray name="positions" >
   <v>      -0.20000000      -0.40000000       0.20000000 </v>
   <v>      -0.40000000      -0.40000000       0.20000000 </v>
   <v>      -0.20000000      -0.40000000       0.40000000 </v>
   <v>      -0.40000000      -0.40000000       0.40000000 </v>
   <v>      -0.20000000      -0.20000000       0.40000000 </v>
   <v>      -0.20000000      -0.20000000       0.00000000 </v>
   <v>      -0.40000000      -0.40000000       0.00000000 </v>
   <v>       0.00000000      -0.40000000       0.40000000 </v>
   <v>      -0.40000000       0.40000000       0.20000000 </v>
   <v>       0.00000000       0.40000000       0.20000000 </v>
   <v>       0.00000000      -0.40000000       0.00000000 </v>
   <v>      -0.20000000       0.40000000       0.00000000 </v>
   <v>      -0.40000000      -0.20000000       0.40000000 </v>
   <v>      -0.40000000      -0.20000000       0.00000000 </v>
   <v>      -0.40000000       0.40000000       0.40000000 </v>
   <v>       0.00000000      -0.20000000       0.40000000 </v>
   <v>       0.00000000      -0.20000000       0.00000000 </v>
   <v>      -0.40000000       0.40000000       0.00000000 </v>
   <v>      -0.20000000       0.20000000       0.20000000 </v>
   <v>       0.20000000      -0.40000000       0.20000000 </v>
   <v>      -0.20000000      -0.40000000      -0.20000000 </v>
   <v>      -0.20000000       0.20000000       0.40000000 </v>
   <v>       0.40000000      -0.40000000       0.40000000 </v>
   <v>      -0.20000000       0.00000000       0.40000000 </v>
   <v>       0.40000000      -0.20000000       0.20000000 </v>
   <v>      -0.40000000      -0.40000000      -0.40000000 </v>
   <v>      -0.40000000       0.00000000       0.20000000 </v>
   <v>       0.00000000       0.20000000       0.20000000 </v>
   <v>       0.00000000       0.00000000       0.20000000 </v>
   <v>       0.00000000      -0.40000000      -0.40000000 </v>
   <v>      -0.20000000       0.00000000       0.00000000 </v>
   <v>       0.40000000       0.40000000       0.20000000 </v>
   <v>       0.40000000      -0.40000000       0.00000000 </v>
   <v>       0.20000000      -0.40000000       0.40000000 </v>
   <v>       0.20000000      -0.20000000       0.20000000 </v>
   <v>      -0.20000000      -0.20000000      -0.20000000 </v>
   <v>      -0.40000000      -0.40000000      -0.20000000 </v>
   <v>       0.20000000       0.40000000       0.20000000 </v>
   <v>       0.00000000      -0.40000000      -0.20000000 </v>
   <v>       0.20000000      -0.40000000       0.00000000 </v>
   <v>      -0.40000000       0.20000000       0.40000000 </v>
   <v>      -0.40000000       0.00000000       0.40000000 </v>
   <v>      -0.40000000      -0.20000000      -0.40000000 </v>
   <v>       0.40000000      -0.20000000       0.40000000 </v>
   <v>      -0.40000000       0.20000000       0.00000000 </v>
   <v>      -0.40000000       0.40000000      -0.40000000 </v>
   <v>      -0.40000000       0.00000000       0.00000000 </v>
   <v>       0.40000000      -0.20000000       0.00000000 </v>
   <v>       0.40000000       0.40000000       0.40000000 </v>
   <v>       0.00000000      -0.20000000      -0.40000000 </v>
   <v>      -0.40000000      -0.20000000      -0.20000000 </v>
   <v>       0.20000000      -0.20000000       0.40000000 </v>
   <v>       0.00000000       0.00000000       0.00000000 </v>
   <v>       0.00000000       0.40000000      -0.40000000 </v>
   <v>       0.40000000       0.40000000       0.00000000 </v>
   <v>       0.00000000       0.20000000       0.00000000 </v>
   <v>       0.20000000       0.40000000       0.40000000 </v>
   <v>       0.20000000      -0.20000000       0.00000000 </v>
   <v>       0.00000000      -0.20000000      -0.20000000 </v>
   <v>       0.20000000       0.40000000       0.00000000 </v>
   <v>       0.40000000       0.00000000       0.20000000 </v>
   <v>      -0.20000000       0.20000000      -0.40000000 </v>
   <v>       0.40000000      -0.40000000      -0.40000000 </v>
   <v>       0.40000000       0.20000000       0.20000000 </v>
   <v>      -0.20000000       0.00000000      -0.40000000 </v>
   <v>      -0.20000000       0.20000000      -0.20000000 </v>
   <v>       0.20000000      -0.40000000      -0.40000000 </v>
   <v>       0.20000000       0.00000000       0.20000000 </v>
   <v>      -0.20000000       0.00000000      -0.20000000 </v>
   <v>       0.20000000       0.20000000       0.20000000 </v>
   <v>       0.20000000      -0.40000000      -0.20000000 </v>
   <v>       0.40000000       0.00000000       0.40000000 </v>
   <v>       0.40000000       0.20000000       0.40000000 </v>
   <v>      -0.40000000       0.20000000      -0.40000000 </v>
   <v>      -0.40000000       0.00000000      -0.40000000 </v>
   <v>       0.40000000      -0.20000000      -0.40000000 </v>
   <v>       0.00000000       0.20000000      -0.40000000 </v>
   <v>       0.00000000       0.00000000      -0.40000000 </v>
   <v>       0.40000000       0.00000000       0.00000000 </v>
   <v>       0.40000000       0.20000000       0.00000000 </v>
   <v>       0.20000000       0.20000000       0.40000000 </v>
   <v>       0.20000000       0.00000000       0.40000000 </v>
   <v>      -0.40000000       0.00000000      -0.20000000 </v>
   <v>      -0.40000000       0.20000000      -0.20000000 </v>
   <v>       0.40000000      -0.20000000      -0.20000000 </v>
   <v>       0.20000000      -0.20000000      -0.40000000 </v>
   <v>       0.20000000       0.20000000       0.00000000 </v>
   <v>       0.20000000       0.00000000       0.00000000 </v>
   <v>       0.00000000       0.20000000      -0.20000000 </v>
   <v>       0.20000000       0.40000000      -0.40000000 </v>
   <v>       0.40000000       0.40000000      -0.20000000 </v>
   <v>       0.20000000      -0.20000000      -0.20000000 </v>
   <v>       0.40000000       0.20000000      -0.40000000 </v>
   <v>       0.40000000       0.00000000      -0.40000000 </v>
   <v>       0.40000000       0.20000000      -0.20000000 </v>
   <v>       0.40000000       0.00000000      -0.20000000 </v>
   <v>       0.20000000       0.00000000      -0.40000000 </v>
   <v>       0.20000000       0.20000000      -0.40000000 </v>
   <v>       0.20000000       0.00000000      -0.20000000 </v>
   <v>       0.20000000       0.20000000      -0.20000000 </v>
  </varray>
 </structure>
 <varray name="primitive_index" >
  <v type="int" >        1 </v>
  <v type="int" >        8 </v>
  <v type="int" >       38 </v>
  <v type="int" >        7 </v>
  <v type="int" >       58 </v>
  <v type="int" >        2 </v>
  <v type="int" >       41 </v>
  <v type="int" >       67 </v>
  <v type="int" >       92 </v>
  <v type="int" >       26 </v>
  <v type="int" >       79 </v>
  <v type="int" >       94 </v>
  <v type="int" >       20 </v>
  <v type="int" >       21 </v>
  <v type="int" >       81 </v>
  <v type="int" >       95 </v>
  <v type="int" >       36 </v>
  <v type="int" >       75 </v>
  <v type="int" >       47 </v>
  <v type="int" >       52 </v>
  <v type="int" >       69 </v>
  <v type="int" >       12 </v>
  <v type="int" >       24 </v>
  <v type="int" >       25 </v>
  <v type="int" >       37 </v>
  <v type="int" >       63 </v>
  <v type="int" >       90 </v>
  <v type="int" >       39 </v>
  <v type="int" >       43 </v>
  <v type="int" >       44 </v>
  <v type="int" >       50 </v>
  <v type="int" >       55 </v>
  <v type="int" >       87 </v>
  <v type="int" >       34 </v>
  <v type="int" >       64 </v>
  <v type="int" >       70 </v>
  <v type="int" >       80 </v>
  <v type="int" >       35 </v>
  <v type="int" >       54 </v>
  <v type="int" >       59 </v>
  <v type="int" >        3 </v>
  <v type="int" >       31 </v>
  <v type="int" >       74 </v>
  <v type="int" >       76 </v>
  <v type="int" >       23 </v>
  <v type="int" >       42 </v>
  <v type="int" >       61 </v>
  <v type="int" >       77 </v>
  <v type="int" >       78 </v>
  <v type="int" >       98 </v>
  <v type="int" >        6 </v>
  <v type="int" >       82 </v>
  <v type="int" >       10 </v>
  <v type="int" >       22 </v>
  <v type="int" >       29 </v>
  <v type="int" >       96 </v>
  <v type="int" >       28 </v>
  <v type="int" >       33 </v>
  <v type="int" >       56 </v>
  <v type="int" >       97 </v>
  <v type="int" >        9 </v>
  <v type="int" >       14 </v>
  <v type="int" >       84 </v>
  <v type="int" >       86 </v>
  <v type="int" >       88 </v>
  <v type="int" >        4 </v>
  <v type="int" >       57 </v>
  <v type="int" >       66 </v>
  <v type="int" >       83 </v>
  <v type="int" >      100 </v>
  <v type="int" >       72 </v>
  <v type="int" >        5 </v>
  <v type="int" >       19 </v>
  <v type="int" >       48 </v>
  <v type="int" >       60 </v>
  <v type="int" >       93 </v>
  <v type="int" >       15 </v>
  <v type="int" >       17 </v>
  <v type="int" >       40 </v>
  <v type="int" >       85 </v>
  <v type="int" >       11 </v>
  <v type="int" >       16 </v>
  <v type="int" >       30 </v>
  <v type="int" >       71 </v>
  <v type="int" >       89 </v>
  <v type="int" >       99 </v>
  <v type="int" >       18 </v>
  <v type="int" >       27 </v>
  <v type="int" >       13 </v>
  <v type="int" >       46 </v>
  <v type="int" >       65 </v>
  <v type="int" >       73 </v>
  <v type="int" >       45 </v>
  <v type="int" >       91 </v>
  <v type="int" >       49 </v>
  <v type="int" >       53 </v>
  <v type="int" >       62 </v>
  <v type="int" >       68 </v>
  <v type="int" >       32 </v>
  <v type="int" >       51 </v>
 </varray>
 <kpoints>
  <generation param="Gamma">
   <v type="int" name="divisions">       1        1        1 </v>
   <v name="usershift">      0.00000000       0.00000000       0.00000000 </v>
   <v name="genvec1">      1.00000000       0.00000000       0.00000000 </v>
   <v name="genvec2">      0.00000000       1.00000000       0.00000000 </v>
   <v name="genvec3">      0.00000000       0.00000000       1.00000000 </v>
   <v name="shift">      0.00000000       0.00000000       0.00000000 </v>
  </generation>
  <varray name="kpointlist" >
   <v>       0.00000000       0.00000000       0.00000000 </v>
  </varray>
  <varray name="weights" >
   <v>       1.00000000 </v>
  </varray>
 </kpoints>
 <parameters>
  <separator name="general" >
   <i type="string" name="SYSTEM">unknown system</i>
   <i type="logical" name="LCOMPAT"> F  </i>
  </separator>
  <separator name="electronic" >
   <i type="string" name="PREC">normal</i>
   <i name="ENMAX">    245.34500000</i>
   <i name="ENAUG">    322.06900000</i>
   <i name="EDIFF">      0.00001000</i>
   <i type="int" name="IALGO">    68</i>
   <i type="int" name="IWAVPR">    10</i>
   <i type="int" name="NBANDS">   304</i>
   <i name="NELECT">    400.00000000</i>
   <i type="int" name="TURBO">     0</i>
   <i type="int" name="IRESTART">     0</i>
   <i type="int" name="NREBOOT">     0</i>
   <i type="int" name="NMIN">     0</i>
   <i name="EREF">      0.00000000</i>
   <separator name="electronic smearing" >
    <i type="int" name="ISMEAR">     0</i>
    <i name="SIGMA">      0.05000000</i>
    <i name="KSPACING">      0.50000000</i>
    <i type="logical" name="KGAMMA"> T  </i>
   </separator>
   <separator name="electronic projectors" >
    <i type="logical" name="LREAL"> T  </i>
    <v name="ROPT">     -0.00050000</v>
    <i type="int" name="LMAXPAW">  -100</i>
    <i type="int" name="LMAXMIX">     2</i>
    <i type="logical" name="NLSPLINE"> F  </i>
   </separator>
   <separator name="electronic startup" >
    <i type="int" name="ISTART">     0</i>
    <i type="int" name="ICHARG">     2</i>
    <i type="int" name="INIWAV">     1</i>
   </separator>
   <separator name="electronic spin" >
    <i type="int" name="ISPIN">     2</i>
    <i type="logical" name="LNONCOLLINEAR"> F  </i>
    <v name="MAGMOM">      1.00000000      1.00000000      1.00000000      1.00000000      1.00000000      1.00000000      1.00000000      1.00000000      1.00000000      1.00000000      1.00000000      1.00000000      1.00000000      1.00000000      1.00000000      1.00000000      1.00000000      1.00000000      1.00000000      1.00000000
      1.00000000      1.00000000      1.00000000      1.00000000      1.00000000      1.00000000      1.00000000      1.00000000      1.00000000      1.00000000      1.00000000      1.00000000      1.00000000      1.00000000      1.00000000      1.00000000      1.00000000      1.00000000      1.00000000      1.00000000
      1.00000000      1.00000000      1.00000000      1.00000000      1.00000000      1.00000000      1.00000000      1.00000000      1.00000000      1.00000000      1.00000000      1.00000000      1.00000000      1.00000000      1.00000000      1.00000000      1.00000000      1.00000000      1.00000000      1.00000000
      1.00000000      1.00000000      1.00000000      1.00000000      1.00000000      1.00000000      1.00000000      1.00000000      1.00000000      1.00000000      1.00000000      1.00000000      1.00000000      1.00000000      1.00000000      1.00000000      1.00000000      1.00000000      1.00000000      1.00000000
      1.00000000      1.00000000      1.00000000      1.00000000      1.00000000      1.00000000      1.00000000      1.00000000      1.00000000      1.00000000      1.00000000      1.00000000      1.00000000      1.00000000      1.00000000      1.00000000      1.00000000      1.00000000      1.00000000      1.00000000
</v>
    <i name="NUPDOWN">     -1.00000000</i>
    <i type="logical" name="LSORBIT"> F  </i>
    <v name="SAXIS">      0.00000000      0.00000000      1.00000000</v>
    <i type="logical" name="LSPIRAL"> F  </i>
    <v name="QSPIRAL">      0.00000000      0.00000000      0.00000000</v>
    <i type="logical" name="LZEROZ"> F  </i>
   </separator>
   <separator name="electronic exchange-correlation" >
    <i type="logical" name="LASPH"> F  </i>
    <i type="logical" name="LMETAGGA"> F  </i>
   </separator>
   <separator name="electronic convergence" >
    <i type="int" name="NELM">    60</i>
    <i type="int" name="NELMDL">     0</i>
    <i type="int" name="NELMIN">     4</i>
    <i name="ENINI">    245.34500000</i>
    <separator name="electronic convergence detail" >
     <i type="logical" name="LDIAG"> T  </i>
     <i type="logical" name="LSUBROT"> F  </i>
     <i name="WEIMIN">      0.00000000</i>
     <i name="EBREAK">      0.00000001</i>
     <i name="DEPER">      0.30000000</i>
     <i type="int" name="NRMM">     4</i>
     <i name="TIME">      0.40000000</i>
    </separator>
   </separator>
   <separator name="electronic mixer" >
    <i name="AMIX">      0.40000000</i>
    <i name="BMIX">      1.00000000</i>
    <i name="AMIN">      0.10000000</i>
    <i name="AMIX_MAG">      1.60000000</i>
    <i name="BMIX_MAG">      1.00000000</i>
    <separator name="electronic mixer details" >
     <i type="int" name="IMIX">     4</i>
     <i type="logical" name="MIXFIRST"> F  </i>
     <i type="int" name="MAXMIX">   -45</i>
     <i name="WC">    100.00000000</i>
     <i type="int" name="INIMIX">     1</i>
     <i type="int" name="MIXPRE">     1</i>
     <i type="int" name="MREMOVE">     5</i>
    </separator>
   </separator>
   <separator name="electronic dipolcorrection" >
    <i type="logical" name="LDIPOL"> F  </i>
    <i type="logical" name="LMONO"> F  </i>
    <i type="int" name="IDIPOL">     0</i>
    <i name="EPSILON">      1.00000000</i>
    <v name="DIPOL">   -100.00000000   -100.00000000   -100.00000000</v>
    <i name="EFIELD">      0.00000000</i>
   </separator>
  </separator>
  <separator name="grids" >
   <i type="int" name="NGX">    40</i>
   <i type="int" name="NGY">    40</i>
   <i type="int" name="NGZ">    40</i>
   <i type="int" name="NGXF">    80</i>
   <i type="int" name="NGYF">    80</i>
   <i type="int" name="NGZF">    80</i>
   <i type="logical" name="ADDGRID"> F  </i>
  </separator>
  <separator name="ionic" >
   <i type="int" name="NSW">     0</i>
   <i type="int" name="IBRION">    -1</i>
   <i type="int" name="MDALGO">     0</i>
   <i type="int" name="ISIF">     2</i>
   <i name="PSTRESS">      0.00000000</i>
   <i name="EDIFFG">      0.00010000</i>
   <i type="int" name="NFREE">     0</i>
   <i name="POTIM">      0.50000000</i>
   <i name="SMASS">     -3.00000000</i>
   <i name="SCALEE">      1.00000000</i>
  </separator>
  <separator name="ionic md" >
   <i name="TEBEG">      0.00010000</i>
   <i name="TEEND">      0.00010000</i>
   <i type="int" name="NBLOCK">     1</i>
   <i type="int" name="KBLOCK">     1</i>
   <i type="int" name="NPACO">   256</i>
   <i name="APACO">     16.00000000</i>
  </separator>
  <separator name="symmetry" >
   <i type="int" name="ISYM">     0</i>
   <i name="SYMPREC">      0.00001000</i>
  </separator>
  <separator name="dos" >
   <i type="int" name="LORBIT">     0</i>
   <v name="RWIGS">     -1.00000000</v>
   <i type="int" name="NEDOS">   301</i>
   <i name="EMIN">     10.00000000</i>
   <i name="EMAX">    -10.00000000</i>
   <i name="EFERMI">      0.00000000</i>
  </separator>
  <separator name="writing" >
   <i type="int" name="NWRITE">     2</i>
   <i type="logical" name="LWAVE"> F  </i>
   <i type="logical" name="LDOWNSAMPLE"> F  </i>
   <i type="logical" name="LCHARG"> F  </i>
   <i type="logical" name="LPARD"> F  </i>
   <i type="logical" name="LVTOT"> F  </i>
   <i type="logical" name="LVHAR"> F  </i>
   <i type="logical" name="LELF"> F  </i>
   <i type="logical" name="LOPTICS"> F  </i>
   <v name="STM">      0.00000000      0.00000000      0.00000000      0.00000000      0.00000000      0.00000000      0.00000000</v>
  </separator>
  <separator name="performance" >
   <i type="int" name="NPAR">    16</i>
   <i type="int" name="NSIM">     4</i>
   <i type="int" name="NBLK">    -1</i>
   <i type="logical" name="LPLANE"> T  </i>
   <i type="logical" name="LSCALAPACK"> T  </i>
   <i type="logical" name="LSCAAWARE"> F  </i>
   <i type="logical" name="LSCALU"> F  </i>
   <i type="logical" name="LASYNC"> F  </i>
   <i type="logical" name="LORBITALREAL"> F  </i>
  </separator>
  <separator name="miscellaneous" >
   <i type="int" name="IDIOT">     3</i>
   <i type="int" name="ISPECIAL">     0</i>
   <i type="logical" name="LMUSIC"> F  </i>
   <v name="POMASS">     28.08500000</v>
   <v name="DARWINR">      0.00000000</v>
   <v name="DARWINV">      1.00000000</v>
   <i type="logical" name="LCORR"> T  </i>
  </separator>
  <i type="logical" name="GGA_COMPAT"> T  </i>
  <i type="logical" name="LBERRY"> F  </i>
  <i type="int" name="ICORELEVEL">     0</i>
  <i type="logical" name="LDAU"> F  </i>
  <i type="int" name="I_CONSTRAINED_M">     0</i>
  <separator name="electronic exchange-correlation" >
   <i type="string" name="GGA">--</i>
   <i type="int" name="VOSKOWN">     0</i>
   <i type="logical" name="LHFCALC"> F  </i>
   <i type="string" name="PRECFOCK"></i>
   <i type="logical" name="LSYMGRAD"> F  </i>
   <i type="logical" name="LHFONE"> F  </i>
   <i type="logical" name="LRHFCALC"> F  </i>
   <i type="logical" name="LTHOMAS"> F  </i>
   <i type="logical" name="LMODELHF"> F  </i>
   <i name="ENCUT4O">     -1.00000000</i>
   <i type="int" name="EXXOEP">     0</i>
   <i type="int" name="FOURORBIT">     0</i>
   <i name="AEXX">      0.00000000</i>
   <i name="HFALPHA">      0.00000000</i>
   <i name="MCALPHA">      0.00000000</i>
   <i name="ALDAX">      1.00000000</i>
   <i name="AGGAX">      1.00000000</i>
   <i name="ALDAC">      1.00000000</i>
   <i name="AGGAC">      1.00000000</i>
   <i type="int" name="NKREDX">     1</i>
   <i type="int" name="NKREDY">     1</i>
   <i type="int" name="NKREDZ">     1</i>
   <i type="logical" name="SHIFTRED"> F  </i>
   <i type="logical" name="ODDONLY"> F  </i>
   <i type="logical" name="EVENONLY"> F  </i>
   <i type="int" name="LMAXFOCK">     0</i>
   <i type="int" name="NMAXFOCKAE">     0</i>
   <i type="logical" name="LFOCKAEDFT"> F  </i>
   <i name="HFSCREEN">      0.00000000</i>
   <i name="HFSCREENC">      0.00000000</i>
   <i type="int" name="NBANDSGWLOW">     0</i>
  </separator>
  <separator name="vdW DFT" >
   <i type="logical" name="LUSE_VDW"> F  </i>
   <i name="Zab_VDW">     -0.84910000</i>
   <i name="PARAM1">      0.12340000</i>
   <i name="PARAM2">      1.00000000</i>
   <i name="PARAM3">      0.00000000</i>
  </separator>
  <separator name="model GW" >
   <i type="int" name="MODEL_GW">     0</i>
   <i name="MODEL_EPS0">      6.38879919</i>
   <i name="MODEL_ALPHA">      1.00000000</i>
  </separator>
  <separator name="linear response parameters" >
   <i type="logical" name="LEPSILON"> F  </i>
   <i type="logical" name="LRPA"> F  </i>
   <i type="logical" name="LNABLA"> F  </i>
   <i type="logical" name="LVEL"> F  </i>
   <i type="int" name="KINTER">     0</i>
   <i name="CSHIFT">      0.10000000</i>
   <i name="OMEGAMAX">     -1.00000000</i>
   <i name="DEG_THRESHOLD">      0.00200000</i>
   <i name="RTIME">     -0.10000000</i>
   <i name="WPLASMAI">      0.00000000</i>
   <v name="DFIELD">      0.00000000      0.00000000      0.00000000</v>
   <v name="WPLASMA">      0.00000000      0.00000000      0.00000000      0.00000000      0.00000000      0.00000000      0.00000000      0.00000000      0.00000000</v>
  </separator>
  <separator name="orbital magnetization" >
   <i type="logical" name="NUCIND"> F  </i>
   <v name="MAGPOS">      0.00000000      0.00000000      0.00000000</v>
   <i type="logical" name="LNICSALL"> T  </i>
   <i type="logical" name="ORBITALMAG"> F  </i>
   <i type="logical" name="LMAGBLOCH"> F  </i>
   <i type="logical" name="LCHIMAG"> F  </i>
   <i type="logical" name="LGAUGE"> T  </i>
   <i type="int" name="MAGATOM">     0</i>
   <v name="MAGDIPOL">      0.00000000      0.00000000      0.00000000</v>
   <v name="AVECCONST">      0.00000000      0.00000000      0.00000000</v>
  </separator>
  <separator name="response functions" >
   <i type="logical" name="LADDER"> F  </i>
   <i type="logical" name="LRPAFORCE"> F  </i>
   <i type="logical" name="LFXC"> F  </i>
   <i type="logical" name="LHARTREE"> T  </i>
   <i type="int" name="IBSE">     0</i>
   <v type="int" name="KPOINT">    -1     0     0     0</v>
   <i type="logical" name="LTCTE"> F  </i>
   <i type="logical" name="LTETE"> F  </i>
   <i type="logical" name="LTRIPLET"> F  </i>
   <i type="logical" name="LFXCEPS"> F  </i>
   <i type="logical" name="LFXHEG"> F  </i>
   <i type="int" name="NATURALO">     2</i>
   <i type="logical" name="L2ORDER"> F  </i>
   <i type="logical" name="LMP2LT"> F  </i>
   <i type="logical" name="LUSEW"> F  </i>
   <i name="ENCUTGW">     -2.00000000</i>
   <i name="ENCUTGWSOFT">     -2.00000000</i>
   <i name="ENCUTLF">     -1.00000000</i>
   <i type="int" name="LMAXMP2">    -1</i>
   <i name="SCISSOR">      0.00000000</i>
   <i type="int" name="NOMEGA">     0</i>
   <i type="int" name="NOMEGAR">     0</i>
   <i type="int" name="NBANDSGW">    -1</i>
   <i type="int" name="NBANDSO">    -1</i>
   <i type="int" name="NBANDSV">    -1</i>
   <i type="int" name="NELM">    60</i>
   <i type="int" name="NELMHF">     1</i>
   <i type="int" name="DIM">     3</i>
   <i type="int" name="ANTIRES">     0</i>
   <i name="OMEGAMAX">    -30.00000000</i>
   <i name="OMEGAMIN">    -30.00000000</i>
   <i name="OMEGATL">   -200.00000000</i>
   <i type="int" name="OMEGAGRID">   140</i>
   <i name="CSHIFT">     -0.10000000</i>
   <i type="logical" name="SELFENERGY"> F  </i>
   <i type="logical" name="LSPECTRAL"> F  </i>
   <i type="logical" name="LSPECTRALGW"> F  </i>
   <i type="logical" name="LSINGLES"> F  </i>
   <i type="logical" name="LFERMIGW"> F  </i>
   <i type="logical" name="ODDONLYGW"> F  </i>
   <i type="logical" name="EVENONLYGW"> F  </i>
   <i type="int" name="NKREDLFX">     1</i>
   <i type="int" name="NKREDLFY">     1</i>
   <i type="int" name="NKREDLFZ">     1</i>
   <i type="int" name="MAXMEM">  2800</i>
   <i type="int" name="TELESCOPE">     0</i>
   <i type="int" name="TAUPAR">     1</i>
   <i type="int" name="OMEGAPAR">    -1</i>
   <i name="LAMBDA">      1.00000000</i>
  </separator>
  <separator name="External order field" >
   <i name="OFIELD_KAPPA">      0.00000000</i>
   <v name="OFIELD_K">      0.00000000      0.00000000      0.00000000</v>
   <i name="OFIELD_Q6_NEAR">      0.00000000</i>
   <i name="OFIELD_Q6_FAR">      0.00000000</i>
   <i name="OFIELD_A">      0.00000000</i>
  </separator>
 </parameters>
 <atominfo>
  <atoms>     100 </atoms>
  <types>       1 </types>
  <array name="atoms" >
   <dimension dim="1">ion</dimension>
   <field type="string">element</field>
   <field type="int">atomtype</field>
   <set>
    <rc><c>Si</c><c>   1</c></rc>
    <rc><c>Si</c><c>   1</c></rc>
    <rc><c>Si</c><c>   1</c></rc>
    <rc><c>Si</c><c>   1</c></rc>
    <rc><c>Si</c><c>   1</c></rc>
    <rc><c>Si</c><c>   1</c></rc>
    <rc><c>Si</c><c>   1</c></rc>
    <rc><c>Si</c><c>   1</c></rc>
    <rc><c>Si</c><c>   1</c></rc>
    <rc><c>Si</c><c>   1</c></rc>
    <rc><c>Si</c><c>   1</c></rc>
    <rc><c>Si</c><c>   1</c></rc>
    <rc><c>Si</c><c>   1</c></rc>
    <rc><c>Si</c><c>   1</c></rc>
    <rc><c>Si</c><c>   1</c></rc>
    <rc><c>Si</c><c>   1</c></rc>
    <rc><c>Si</c><c>   1</c></rc>
    <rc><c>Si</c><c>   1</c></rc>
    <rc><c>Si</c><c>   1</c></rc>
    <rc><c>Si</c><c>   1</c></rc>
    <rc><c>Si</c><c>   1</c></rc>
    <rc><c>Si</c><c>   1</c></rc>
    <rc><c>Si</c><c>   1</c></rc>
    <rc><c>Si</c><c>   1</c></rc>
    <rc><c>Si</c><c>   1</c></rc>
    <rc><c>Si</c><c>   1</c></rc>
    <rc><c>Si</c><c>   1</c></rc>
    <rc><c>Si</c><c>   1</c></rc>
    <rc><c>Si</c><c>   1</c></rc>
    <rc><c>Si</c><c>   1</c></rc>
    <rc><c>Si</c><c>   1</c></rc>
    <rc><c>Si</c><c>   1</c></rc>
    <rc><c>Si</c><c>   1</c></rc>
    <rc><c>Si</c><c>   1</c></rc>
    <rc><c>Si</c><c>   1</c></rc>
    <rc><c>Si</c><c>   1</c></rc>
    <rc><c>Si</c><c>   1</c></rc>
    <rc><c>Si</c><c>   1</c></rc>
    <rc><c>Si</c><c>   1</c></rc>
    <rc><c>Si</c><c>   1</c></rc>
    <rc><c>Si</c><c>   1</c></rc>
    <rc><c>Si</c><c>   1</c></rc>
    <rc><c>Si</c><c>   1</c></rc>
    <rc><c>Si</c><c>   1</c></rc>
    <rc><c>Si</c><c>   1</c></rc>
    <rc><c>Si</c><c>   1</c></rc>
    <rc><c>Si</c><c>   1</c></rc>
    <rc><c>Si</c><c>   1</c></rc>
    <rc><c>Si</c><c>   1</c></rc>
    <rc><c>Si</c><c>   1</c></rc>
    <rc><c>Si</c><c>   1</c></rc>
    <rc><c>Si</c><c>   1</c></rc>
    <rc><c>Si</c><c>   1</c></rc>
    <rc><c>Si</c><c>   1</c></rc>
    <rc><c>Si</c><c>   1</c></rc>
    <rc><c>Si</c><c>   1</c></rc>
    <rc><c>Si</c><c>   1</c></rc>
    <rc><c>Si</c><c>   1</c></rc>
    <rc><c>Si</c><c>   1</c></rc>
    <rc><c>Si</c><c>   1</c></rc>
    <rc><c>Si</c><c>   1</c></rc>
    <rc><c>Si</c><c>   1</c></rc>
    <rc><c>Si</c><c>   1</c></rc>
    <rc><c>Si</c><c>   1</c></rc>
    <rc><c>Si</c><c>   1</c></rc>
    <rc><c>Si</c><c>   1</c></rc>
    <rc><c>Si</c><c>   1</c></rc>
    <rc><c>Si</c><c>   1</c></rc>
    <rc><c>Si</c><c>   1</c></rc>
    <rc><c>Si</c><c>   1</c></rc>
    <rc><c>Si</c><c>   1</c></rc>
    <rc><c>Si</c><c>   1</c></rc>
    <rc><c>Si</c><c>   1</c></rc>
    <rc><c>Si</c><c>   1</c></rc>
    <rc><c>Si</c><c>   1</c></rc>
    <rc><c>Si</c><c>   1</c></rc>
    <rc><c>Si</c><c>   1</c></rc>
    <rc><c>Si</c><c>   1</c></rc>
    <rc><c>Si</c><c>   1</c></rc>
    <rc><c>Si</c><c>   1</c></rc>
    <rc><c>Si</c><c>   1</c></rc>
    <rc><c>Si</c><c>   1</c></rc>
    <rc><c>Si</c><c>   1</c></rc>
    <rc><c>Si</c><c>   1</c></rc>
    <rc><c>Si</c><c>   1</c></rc>
    <rc><c>Si</c><c>   1</c></rc>
    <rc><c>Si</c><c>   1</c></rc>
    <rc><c>Si</c><c>   1</c></rc>
    <rc><c>Si</c><c>   1</c></rc>
    <rc><c>Si</c><c>   1</c></rc>
    <rc><c>Si</c><c>   1</c></rc>
    <rc><c>Si</c><c>   1</c></rc>
    <rc><c>Si</c><c>   1</c></rc>
    <rc><c>Si</c><c>   1</c></rc>
    <rc><c>Si</c><c>   1</c></rc>
    <rc><c>Si</c><c>   1</c></rc>
    <rc><c>Si</c><c>   1</c></rc>
    <rc><c>Si</c><c>   1</c></rc>
    <rc><c>Si</c><c>   1</c></rc>
    <rc><c>Si</c><c>   1</c></rc>
   </set>
  </array>
  <array name="atomtypes" >
   <dimension dim="1">type</dimension>
   <field type="int">atomspertype</field>
   <field type="string">element</field>
   <field>mass</field>
   <field>valence</field>
   <field type="string">pseudopotential</field>
   <set>
    <rc><c> 100</c><c>Si</c><c>     28.08500000</c><c>      4.00000000</c><c>  PAW_PBE Si 05Jan2001                  </c></rc>
   </set>
  </array>
 </atominfo>
 <structure name="initialpos" >
  <crystal>
   <varray name="basis" >
    <v>      10.21149500       0.00000000       0.00000000 </v>
    <v>       0.00000000      10.21149500       0.00000000 </v>
    <v>       0.00000000       0.00000000      10.21149500 </v>
   </varray>
   <i name="volume">   1064.79986425 </i>
   <varray name="rec_basis" >
    <v>       0.09792885       0.00000000       0.00000000 </v>
    <v>       0.00000000       0.09792885       0.00000000 </v>
    <v>       0.00000000       0.00000000       0.09792885 </v>
   </varray>
  </crystal>
  <varray name="positions" >
   <v>       0.80000000       0.60000000       0.20000000 </v>
   <v>       0.80000000       0.80000000       0.00000000 </v>
   <v>       0.60000000       0.20000000       0.40000000 </v>
   <v>       0.80000000       0.20000000       0.80000000 </v>
   <v>       0.40000000       0.00000000       0.40000000 </v>
   <v>       0.60000000       0.80000000       0.80000000 </v>
   <v>       0.60000000       0.60000000       0.40000000 </v>
   <v>       0.60000000       0.60000000       0.20000000 </v>
   <v>       0.40000000       0.00000000       0.20000000 </v>
   <v>       0.00000000       0.00000000       0.00000000 </v>
   <v>       0.20000000       0.20000000       0.40000000 </v>
   <v>       0.80000000       0.20000000       0.40000000 </v>
   <v>       0.00000000       0.20000000       0.80000000 </v>
   <v>       0.80000000       0.20000000       0.60000000 </v>
   <v>       0.00000000       0.20000000       0.60000000 </v>
   <v>       0.20000000       0.00000000       0.40000000 </v>
   <v>       0.00000000       0.00000000       0.60000000 </v>
   <v>       0.20000000       0.20000000       0.00000000 </v>
   <v>       0.40000000       0.20000000       0.40000000 </v>
   <v>       0.60000000       0.80000000       0.40000000 </v>
   <v>       0.60000000       0.80000000       0.00000000 </v>
   <v>       0.00000000       0.40000000       0.60000000 </v>
   <v>       0.60000000       0.20000000       0.00000000 </v>
   <v>       0.40000000       0.60000000       0.40000000 </v>
   <v>       0.80000000       0.00000000       0.40000000 </v>
   <v>       0.00000000       0.40000000       0.20000000 </v>
   <v>       0.20000000       0.00000000       0.00000000 </v>
   <v>       0.20000000       0.40000000       0.40000000 </v>
   <v>       0.40000000       0.40000000       0.00000000 </v>
   <v>       0.60000000       0.00000000       0.80000000 </v>
   <v>       0.60000000       0.00000000       0.40000000 </v>
   <v>       0.20000000       0.00000000       0.80000000 </v>
   <v>       0.20000000       0.80000000       0.00000000 </v>
   <v>       0.20000000       0.60000000       0.40000000 </v>
   <v>       0.20000000       0.40000000       0.20000000 </v>
   <v>       0.00000000       0.80000000       0.00000000 </v>
   <v>       0.40000000       0.80000000       0.20000000 </v>
   <v>       0.80000000       0.60000000       0.40000000 </v>
   <v>       0.00000000       0.20000000       0.20000000 </v>
   <v>       0.40000000       0.00000000       0.00000000 </v>
   <v>       0.60000000       0.60000000       0.00000000 </v>
   <v>       0.60000000       0.40000000       0.60000000 </v>
   <v>       0.00000000       0.00000000       0.20000000 </v>
   <v>       0.00000000       0.60000000       0.60000000 </v>
   <v>       0.40000000       0.20000000       0.60000000 </v>
   <v>       0.20000000       0.40000000       0.60000000 </v>
   <v>       0.80000000       0.20000000       0.20000000 </v>
   <v>       0.60000000       0.20000000       0.60000000 </v>
   <v>       0.40000000       0.20000000       0.80000000 </v>
   <v>       0.80000000       0.00000000       0.00000000 </v>
   <v>       0.20000000       0.20000000       0.80000000 </v>
   <v>       0.20000000       0.60000000       0.20000000 </v>
   <v>       0.40000000       0.00000000       0.80000000 </v>
   <v>       0.00000000       0.60000000       0.80000000 </v>
   <v>       0.40000000       0.40000000       0.20000000 </v>
   <v>       0.00000000       0.80000000       0.80000000 </v>
   <v>       0.20000000       0.60000000       0.60000000 </v>
   <v>       0.80000000       0.80000000       0.40000000 </v>
   <v>       0.20000000       0.60000000       0.00000000 </v>
   <v>       0.60000000       0.00000000       0.60000000 </v>
   <v>       0.60000000       0.00000000       0.00000000 </v>
   <v>       0.20000000       0.00000000       0.60000000 </v>
   <v>       0.60000000       0.60000000       0.60000000 </v>
   <v>       0.20000000       0.80000000       0.20000000 </v>
   <v>       0.40000000       0.40000000       0.80000000 </v>
   <v>       0.20000000       0.00000000       0.20000000 </v>
   <v>       0.00000000       0.60000000       0.40000000 </v>
   <v>       0.20000000       0.20000000       0.60000000 </v>
   <v>       0.80000000       0.60000000       0.80000000 </v>
   <v>       0.80000000       0.80000000       0.80000000 </v>
   <v>       0.60000000       0.20000000       0.80000000 </v>
   <v>       0.20000000       0.60000000       0.80000000 </v>
   <v>       0.20000000       0.80000000       0.80000000 </v>
   <v>       0.60000000       0.80000000       0.60000000 </v>
   <v>       0.60000000       0.40000000       0.00000000 </v>
   <v>       0.40000000       0.80000000       0.40000000 </v>
   <v>       0.40000000       0.80000000       0.00000000 </v>
   <v>       0.40000000       0.40000000       0.40000000 </v>
   <v>       0.00000000       0.60000000       0.00000000 </v>
   <v>       0.60000000       0.60000000       0.80000000 </v>
   <v>       0.60000000       0.40000000       0.40000000 </v>
   <v>       0.20000000       0.80000000       0.40000000 </v>
   <v>       0.80000000       0.00000000       0.80000000 </v>
   <v>       0.40000000       0.60000000       0.60000000 </v>
   <v>       0.40000000       0.20000000       0.00000000 </v>
   <v>       0.40000000       0.20000000       0.20000000 </v>
   <v>       0.40000000       0.60000000       0.00000000 </v>
   <v>       0.80000000       0.00000000       0.60000000 </v>
   <v>       0.40000000       0.80000000       0.80000000 </v>
   <v>       0.60000000       0.00000000       0.20000000 </v>
   <v>       0.40000000       0.00000000       0.60000000 </v>
   <v>       0.60000000       0.40000000       0.20000000 </v>
   <v>       0.40000000       0.80000000       0.60000000 </v>
   <v>       0.80000000       0.40000000       0.00000000 </v>
   <v>       0.00000000       0.80000000       0.40000000 </v>
   <v>       0.00000000       0.20000000       0.00000000 </v>
   <v>       0.20000000       0.40000000       0.00000000 </v>
   <v>       0.00000000       0.80000000       0.60000000 </v>
   <v>       0.20000000       0.80000000       0.60000000 </v>
   <v>       0.20000000       0.20000000       0.20000000 </v>
  </varray>
 </structure>
 <calculation>
  <scstep>
   <time name="dav">    1.70    1.71</time>
   <time name="total">    1.77    1.89</time>
   <energy>
    <i name="alphaZ">    316.14514549 </i>
    <i name="ewald"> -12947.38204056 </i>
    <i name="hartreedc">  -1458.60698500 </i>
    <i name="XCdc">   -762.14367111 </i>
    <i name="pawpsdc">   8803.41707833 </i>
    <i name="pawaedc">  -7043.47671478 </i>
    <i name="eentropy">     -0.02254373 </i>
    <i name="bandstr">   3708.56997940 </i>
    <i name="atom">  10306.12861560 </i>
    <i name="e_fr_energy">    922.62886364 </i>
    <i name="e_wo_entrp">    922.65140737 </i>
    <i name="e_0_energy">    922.64013551 </i>
   </energy>
  </scstep>
  <scstep>
   <time name="dav">    1.98    2.00</time>
   <time name="total">    1.99    2.00</time>
   <energy>
    <i name="e_fr_energy">   -205.68061299 </i>
    <i name="e_wo_entrp">   -205.63260072 </i>
    <i name="e_0_energy">   -205.65660685 </i>
   </energy>
  </scstep>
  <scstep>
   <time name="dav">    1.99    2.00</time>
   <time name="total">    1.99    2.00</time>
   <energy>
    <i name="e_fr_energy">   -266.14365942 </i>
    <i name="e_wo_entrp">   -266.08142234 </i>
    <i name="e_0_energy">   -266.11254088 </i>
   </energy>
  </scstep>
  <scstep>
   <time name="dav">    2.06    2.07</time>
   <time name="total">    2.06    2.07</time>
   <energy>
    <i name="e_fr_energy">   -267.56714492 </i>
    <i name="e_wo_entrp">   -267.50621743 </i>
    <i name="e_0_energy">   -267.53668118 </i>
   </energy>
  </scstep>
  <scstep>
   <time name="dav">    1.97    1.98</time>
   <time name="total">    2.01    2.02</time>
   <energy>
    <i name="e_fr_energy">   -267.60098801 </i>
    <i name="e_wo_entrp">   -267.54009003 </i>
    <i name="e_0_energy">   -267.57053902 </i>
   </energy>
  </scstep>
  <scstep>
   <time name="diag">    0.28    0.29</time>
   <time name="diis">    0.72    0.73</time>
   <time name="orth">    0.09    0.09</time>
   <time name="total">    1.21    1.21</time>
   <energy>
    <i name="e_fr_energy">   -250.57964151 </i>
    <i name="e_wo_entrp">   -250.54526836 </i>
    <i name="e_0_energy">   -250.56245493 </i>
   </energy>
  </scstep>
  <scstep>
   <time name="diag">    0.29    0.29</time>
   <time name="diis">    0.67    0.67</time>
   <time name="orth">    0.09    0.09</time>
   <time name="total">    1.15    1.16</time>
   <energy>
    <i name="e_fr_energy">   -249.78902603 </i>
    <i name="e_wo_entrp">   -249.73372456 </i>
    <i name="e_0_energy">   -249.76137530 </i>
   </energy>
  </scstep>
  <scstep>
   <time name="diag">    0.28    0.29</time>
   <time name="diis">    0.71    0.72</time>
   <time name="orth">    0.09    0.09</time>
   <time name="total">    1.19    1.20</time>
   <energy>
    <i name="e_fr_energy">   -251.99268908 </i>
    <i name="e_wo_entrp">   -251.94317856 </i>
    <i name="e_0_energy">   -251.96793382 </i>
   </energy>
  </scstep>
  <scstep>
   <time name="diag">    0.28    0.29</time>
   <time name="diis">    0.74    0.75</time>
   <time name="orth">    0.09    0.09</time>
   <time name="total">    1.22    1.23</time>
   <energy>
    <i name="e_fr_energy">   -252.18235392 </i>
    <i name="e_wo_entrp">   -252.14300483 </i>
    <i name="e_0_energy">   -252.16267938 </i>
   </energy>
  </scstep>
  <scstep>
   <time name="diag">    0.28    0.29</time>
   <time name="diis">    0.74    0.74</time>
   <time name="orth">    0.09    0.09</time>
   <time name="total">    1.22    1.23</time>
   <energy>
    <i name="e_fr_energy">   -252.19709515 </i>
    <i name="e_wo_entrp">   -252.15771575 </i>
    <i name="e_0_energy">   -252.17740545 </i>
   </energy>
  </scstep>
  <scstep>
   <time name="diag">    0.29    0.29</time>
   <time name="diis">    0.76    0.77</time>
   <time name="orth">    0.09    0.09</time>
   <time name="total">    1.24    1.25</time>
   <energy>
    <i name="e_fr_energy">   -252.21751819 </i>
    <i name="e_wo_entrp">   -252.17712079 </i>
    <i name="e_0_energy">   -252.19731949 </i>
   </energy>
  </scstep>
  <scstep>
   <time name="diag">    0.29    0.29</time>
   <time name="diis">    0.76    0.77</time>
   <time name="orth">    0.09    0.09</time>
   <time name="total">    1.25    1.25</time>
   <energy>
    <i name="e_fr_energy">   -252.22671054 </i>
    <i name="e_wo_entrp">   -252.18369899 </i>
    <i name="e_0_energy">   -252.20520476 </i>
   </energy>
  </scstep>
  <scstep>
   <time name="diag">    0.28    0.29</time>
   <time name="diis">    0.76    0.77</time>
   <time name="orth">    0.09    0.09</time>
   <time name="total">    1.25    1.25</time>
   <energy>
    <i name="e_fr_energy">   -252.22918178 </i>
    <i name="e_wo_entrp">   -252.18535433 </i>
    <i name="e_0_energy">   -252.20726806 </i>
   </energy>
  </scstep>
  <scstep>
   <time name="diag">    0.29    0.29</time>
   <time name="diis">    0.75    0.76</time>
   <time name="orth">    0.09    0.09</time>
   <time name="total">    1.24    1.25</time>
   <energy>
    <i name="e_fr_energy">   -252.22981409 </i>
    <i name="e_wo_entrp">   -252.18586053 </i>
    <i name="e_0_energy">   -252.20783731 </i>
   </energy>
  </scstep>
  <scstep>
   <time name="diag">    0.29    0.29</time>
   <time name="diis">    0.75    0.76</time>
   <time name="orth">    0.09    0.09</time>
   <time name="total">    1.24    1.24</time>
   <energy>
    <i name="e_fr_energy">   -252.23001664 </i>
    <i name="e_wo_entrp">   -252.18594957 </i>
    <i name="e_0_energy">   -252.20798311 </i>
   </energy>
  </scstep>
  <scstep>
   <time name="diag">    0.29    0.29</time>
   <time name="diis">    0.75    0.76</time>
   <time name="orth">    0.09    0.09</time>
   <time name="total">    1.24    1.24</time>
   <energy>
    <i name="e_fr_energy">   -252.23008911 </i>
    <i name="e_wo_entrp">   -252.18604335 </i>
    <i name="e_0_energy">   -252.20806623 </i>
   </energy>
  </scstep>
  <scstep>
   <time name="diag">    0.29    0.29</time>
   <time name="diis">    0.63    0.63</time>
   <time name="orth">    0.09    0.09</time>
   <time name="total">    1.11    1.12</time>
   <energy>
    <i name="e_fr_energy">   -252.23010373 </i>
    <i name="e_wo_entrp">   -252.18604504 </i>
    <i name="e_0_energy">   -252.20807438 </i>
   </energy>
  </scstep>
  <scstep>
   <time name="diag">    0.29    0.29</time>
   <time name="diis">    0.45    0.45</time>
   <time name="orth">    0.09    0.09</time>
   <time name="total">    0.89    0.90</time>
   <energy>
    <i name="alphaZ">    316.14514549 </i>
    <i name="ewald"> -12947.38204056 </i>
    <i name="hartreedc">  -1665.73824872 </i>
    <i name="XCdc">   -742.19193249 </i>
    <i name="pawpsdc"> 153581.84376279 </i>
    <i name="pawaedc">-151859.82234760 </i>
    <i name="eentropy">     -0.04405024 </i>
    <i name="bandstr">   2758.83099176 </i>
    <i name="atom">  10306.12861560 </i>
    <i name="e_fr_energy">   -252.23010397 </i>
    <i name="e_wo_entrp">   -252.18605373 </i>
    <i name="e_0_energy">   -252.20807885 </i>
   </energy>
  </scstep>
  <structure>
   <crystal>
    <varray name="basis" >
     <v>      10.21149500       0.00000000       0.00000000 </v>
     <v>       0.00000000      10.21149500       0.00000000 </v>
     <v>       0.00000000       0.00000000      10.21149500 </v>
    </varray>
    <i name="volume">   1064.79986425 </i>
    <varray name="rec_basis" >
     <v>       0.09792885       0.00000000       0.00000000 </v>
     <v>       0.00000000       0.09792885       0.00000000 </v>
     <v>       0.00000000       0.00000000       0.09792885 </v>
    </varray>
   </crystal>
   <varray name="positions" >
    <v>       0.80000000       0.60000000       0.20000000 </v>
    <v>       0.80000000       0.80000000       0.00000000 </v>
    <v>       0.60000000       0.20000000       0.40000000 </v>
    <v>       0.80000000       0.20000000       0.80000000 </v>
    <v>       0.40000000       0.00000000       0.40000000 </v>
    <v>       0.60000000       0.80000000       0.80000000 </v>
    <v>       0.60000000       0.60000000       0.40000000 </v>
    <v>       0.60000000       0.60000000       0.20000000 </v>
    <v>       0.40000000       0.00000000       0.20000000 </v>
    <v>       0.00000000       0.00000000       0.00000000 </v>
    <v>       0.20000000       0.20000000       0.40000000 </v>
    <v>       0.80000000       0.20000000       0.40000000 </v>
    <v>       0.00000000       0.20000000       0.80000000 </v>
    <v>       0.80000000       0.20000000       0.60000000 </v>
    <v>       0.00000000       0.20000000       0.60000000 </v>
    <v>       0.20000000       0.00000000       0.40000000 </v>
    <v>       0.00000000       0.00000000       0.60000000 </v>
    <v>       0.20000000       0.20000000       0.00000000 </v>
    <v>       0.40000000       0.20000000       0.40000000 </v>
    <v>       0.60000000       0.80000000       0.40000000 </v>
    <v>       0.60000000       0.80000000       0.00000000 </v>
    <v>       0.00000000       0.40000000       0.60000000 </v>
    <v>       0.60000000       0.20000000       0.00000000 </v>
    <v>       0.40000000       0.60000000       0.40000000 </v>
    <v>       0.80000000       0.00000000       0.40000000 </v>
    <v>       0.00000000       0.40000000       0.20000000 </v>
    <v>       0.20000000       0.00000000       0.00000000 </v>
    <v>       0.20000000       0.40000000       0.40000000 </v>
    <v>       0.40000000       0.40000000       0.00000000 </v>
    <v>       0.60000000       0.00000000       0.80000000 </v>
    <v>       0.60000000       0.00000000       0.40000000 </v>
    <v>       0.20000000       0.00000000       0.80000000 </v>
    <v>       0.20000000       0.80000000       0.00000000 </v>
    <v>       0.20000000       0.60000000       0.40000000 </v>
    <v>       0.20000000       0.40000000       0.20000000 </v>
    <v>       0.00000000       0.80000000       0.00000000 </v>
    <v>       0.40000000       0.80000000       0.20000000 </v>
    <v>       0.80000000       0.60000000       0.40000000 </v>
    <v>       0.00000000       0.20000000       0.20000000 </v>
    <v>       0.40000000       0.00000000       0.00000000 </v>
    <v>       0.60000000       0.60000000       0.00000000 </v>
    <v>       0.60000000       0.40000000       0.60000000 </v>
    <v>       0.00000000       0.00000000       0.20000000 </v>
    <v>       0.00000000       0.60000000       0.60000000 </v>
    <v>       0.40000000       0.20000000       0.60000000 </v>
    <v>       0.20000000       0.40000000       0.60000000 </v>
    <v>       0.80000000       0.20000000       0.20000000 </v>
    <v>       0.60000000       0.20000000       0.60000000 </v>
    <v>       0.40000000       0.20000000       0.80000000 </v>
    <v>       0.80000000       0.00000000       0.00000000 </v>
    <v>       0.20000000       0.20000000       0.80000000 </v>
    <v>       0.20000000       0.60000000       0.20000000 </v>
    <v>       0.40000000       0.00000000       0.80000000 </v>
    <v>       0.00000000       0.60000000       0.80000000 </v>
    <v>       0.40000000       0.40000000       0.20000000 </v>
    <v>       0.00000000       0.80000000       0.80000000 </v>
    <v>       0.20000000       0.60000000       0.60000000 </v>
    <v>       0.80000000       0.80000000       0.40000000 </v>
    <v>       0.20000000       0.60000000       0.00000000 </v>
    <v>       0.60000000       0.00000000       0.60000000 </v>
    <v>       0.60000000       0.00000000       0.00000000 </v>
    <v>       0.20000000       0.00000000       0.60000000 </v>
    <v>       0.60000000       0.60000000       0.60000000 </v>
    <v>       0.20000000       0.80000000       0.20000000 </v>
    <v>       0.40000000       0.40000000       0.80000000 </v>
    <v>       0.20000000       0.00000000       0.20000000 </v>
    <v>       0.00000000       0.60000000       0.40000000 </v>
    <v>       0.20000000       0.20000000       0.60000000 </v>
    <v>       0.80000000       0.60000000       0.80000000 </v>
    <v>       0.80000000       0.80000000       0.80000000 </v>
    <v>       0.60000000       0.20000000       0.80000000 </v>
    <v>       0.20000000       0.60000000       0.80000000 </v>
    <v>       0.20000000       0.80000000       0.80000000 </v>
    <v>       0.60000000       0.80000000       0.60000000 </v>
    <v>       0.60000000       0.40000000       0.00000000 </v>
    <v>       0.40000000       0.80000000       0.40000000 </v>
    <v>       0.40000000       0.80000000       0.00000000 </v>
    <v>       0.40000000       0.40000000       0.40000000 </v>
    <v>       0.00000000       0.60000000       0.00000000 </v>
    <v>       0.60000000       0.60000000       0.80000000 </v>
    <v>       0.60000000       0.40000000       0.40000000 </v>
    <v>       0.20000000       0.80000000       0.40000000 </v>
    <v>       0.80000000       0.00000000       0.80000000 </v>
    <v>       0.40000000       0.60000000       0.60000000 </v>
    <v>       0.40000000       0.20000000       0.00000000 </v>
    <v>       0.40000000       0.20000000       0.20000000 </v>
    <v>       0.40000000       0.60000000       0.00000000 </v>
    <v>       0.80000000       0.00000000       0.60000000 </v>
    <v>       0.40000000       0.80000000       0.80000000 </v>
    <v>       0.60000000       0.00000000       0.20000000 </v>
    <v>       0.40000000       0.00000000       0.60000000 </v>
    <v>       0.60000000       0.40000000       0.20000000 </v>
    <v>       0.40000000       0.80000000       0.60000000 </v>
    <v>       0.80000000       0.40000000       0.00000000 </v>
    <v>       0.00000000       0.80000000       0.40000000 </v>
    <v>       0.00000000       0.20000000       0.00000000 </v>
    <v>       0.20000000       0.40000000       0.00000000 </v>
    <v>       0.00000000       0.80000000       0.60000000 </v>
    <v>       0.20000000       0.80000000       0.60000000 </v>
    <v>       0.20000000       0.20000000       0.20000000 </v>
   </varray>
  </structure>
  <varray name="forces" >
   <v>       5.61902348      -0.47216015      -5.55428009 </v>
   <v>      -0.09348349      -5.43336173       5.40769481 </v>
   <v>       1.00985651      -0.01050732      -5.96882458 </v>
   <v>       0.01123824       5.43386214       5.67513841 </v>
   <v>      -0.35551653       0.14448434      -0.16352724 </v>
   <v>       0.18221354      -0.12326472      -0.73553406 </v>
   <v>       0.39124572      -0.05241042      -0.49145095 </v>
   <v>      -5.62632659       4.85137627      -0.49042342 </v>
   <v>       0.96639974       0.30999629       0.07291464 </v>
   <v>      -1.10547683       0.66026628      -4.91757042 </v>
   <v>      -6.36578930      -0.12783837      -0.42617642 </v>
   <v>       4.95908200       4.93575258      -0.42770404 </v>
   <v>      -0.57206713       0.68301190       0.47719565 </v>
   <v>       0.26105521       5.81707582      -0.59106595 </v>
   <v>      -0.36903046       0.91377450      -5.45534381 </v>
   <v>      -5.87919306       0.35851405      -0.03288885 </v>
   <v>      -0.35836564      -0.01991405       0.07135695 </v>
   <v>      -0.26341913       1.06312637      -0.11635221 </v>
   <v>       0.32872648       0.82603150      -0.61062710 </v>
   <v>       0.62360533      -0.03464298      -5.41360563 </v>
   <v>       0.88915126      -0.60986858       5.82881067 </v>
   <v>      -4.88546737      -0.19831742       0.30415675 </v>
   <v>       6.27796061       0.46625173       5.60107759 </v>
   <v>      -0.04836143      -0.60721671      -5.39732691 </v>
   <v>       5.16872750      -0.09306781      -5.60566908 </v>
   <v>      -5.33664474       5.93854338      -0.20650947 </v>
   <v>      -0.50876382       0.36610380      -0.63745316 </v>
   <v>      -5.67553171       0.02328843       0.34983693 </v>
   <v>      -0.11380429       0.68288428      -0.53710883 </v>
   <v>       0.10974185       0.15236125      -0.06993493 </v>
   <v>       1.03484304      -0.03078120      -1.77544954 </v>
   <v>      -5.92344502       0.14732367      -0.02133527 </v>
   <v>      -1.09950188      -0.45521504       0.44135265 </v>
   <v>      -0.26602562      -0.79848030      -1.22685760 </v>
   <v>      -0.42816858       1.13600536      -0.37780399 </v>
   <v>      -0.41425616      -0.94269837       5.11320265 </v>
   <v>       6.04823178      -6.21450341      -0.25416923 </v>
   <v>       0.50659067      -5.27176806       4.63934108 </v>
   <v>      -0.74414023       0.34386383       5.20569129 </v>
   <v>       0.11709978       0.19330545       0.15014169 </v>
   <v>       4.89015625      -0.08125087      -0.03887468 </v>
   <v>       0.28006177       0.16146478       5.14381216 </v>
   <v>      -5.81497621      -4.95729633       5.64537707 </v>
   <v>      -6.16367495      -0.69134697      -0.00776496 </v>
   <v>      -0.06755737       6.13009128      -0.01729313 </v>
   <v>       4.49570175       0.26134908       5.55223837 </v>
   <v>      -5.51463344       0.13821295      -5.04516956 </v>
   <v>       0.01255294       1.39676086       0.31310054 </v>
   <v>       0.11256989       1.39101994      -0.35673842 </v>
   <v>       0.11219080       5.93023873       5.43341164 </v>
   <v>      -0.49826337       5.14130739      -0.05518407 </v>
   <v>      -0.54634992      -0.30850844       0.05494796 </v>
   <v>      -0.39595929      -0.47652344      -0.23101408 </v>
   <v>      -0.92977368      -5.64976559       0.29586119 </v>
   <v>       0.27996877       5.38327408       0.84265577 </v>
   <v>      -0.00158018       5.38771531      -0.14560311 </v>
   <v>       0.83551051      -1.07131431       0.70355450 </v>
   <v>       0.10123857       0.23003678      -0.47547171 </v>
   <v>      -0.08860765      -1.46639117       0.45886482 </v>
   <v>       0.68631324      -0.52727270       0.29868548 </v>
   <v>       1.42797906       0.59055157       1.78122495 </v>
   <v>      -1.07334752      -0.04000020       0.41402094 </v>
   <v>       5.59911670      -0.70693535       0.91250824 </v>
   <v>      -5.89372340      -1.00624601       0.09802088 </v>
   <v>       0.37209055       5.80801529      -5.65895453 </v>
   <v>      -1.30456541       0.00728164       0.40253388 </v>
   <v>      -0.41046217      -5.53189199      -6.02273946 </v>
   <v>      -0.00679890       1.15617693       0.22724204 </v>
   <v>      -0.20588348      -4.98135428      -0.15080848 </v>
   <v>       0.26109144      -0.60055441      -5.64607293 </v>
   <v>       0.76894403       6.09066061       0.77029326 </v>
   <v>       5.44096841      -5.86089114       0.19081451 </v>
   <v>      -0.23174868       0.00408005      -0.32259880 </v>
   <v>       5.92551104      -0.55623248       0.17188510 </v>
   <v>       0.64569398      -0.30737335      -4.98084719 </v>
   <v>       0.62179052      -0.68154773      -0.69754049 </v>
   <v>       0.72800652      -1.04141433       0.11258470 </v>
   <v>       0.21514384       0.56013560       5.05509054 </v>
   <v>      -5.38813882      -6.21829175       6.32343831 </v>
   <v>      -4.38349974      -6.11500938       0.22281053 </v>
   <v>       5.74718289      -0.37197321      -0.18152131 </v>
   <v>      -1.15676575       0.37454595      -0.40978041 </v>
   <v>       5.42770266       0.13634610      -0.00458642 </v>
   <v>       0.41892086      -5.80766643       5.73103101 </v>
   <v>       0.57215838       0.78381071       0.92786614 </v>
   <v>       6.05224725       0.50025986       0.08058313 </v>
   <v>       0.14144907      -0.22847811       0.26879369 </v>
   <v>       0.54084824      -5.56338415      -0.18860596 </v>
   <v>      -0.03482279      -6.21057888      -0.50760836 </v>
   <v>       6.05050967       0.42703425       0.09448545 </v>
   <v>      -0.01829160       0.03241737       0.25203818 </v>
   <v>       5.20507194      -5.05940061       0.05656182 </v>
   <v>       0.22177356      -1.05121825       0.70844347 </v>
   <v>       5.96060625      -0.31314634      -0.00395081 </v>
   <v>      -0.43317550       5.08530168      -5.57121331 </v>
   <v>      -5.65353914       5.96167870      -0.39486442 </v>
   <v>      -5.99567257       0.21243973      -5.08422439 </v>
   <v>      -5.62250488       0.16120061       0.03931713 </v>
   <v>      -0.17738205      -0.17948953       0.23765366 </v>
   <v>      -0.21138663       0.26815338       0.54436095 </v>
  </varray>
  <varray name="stress" >
   <v>    1455.63686858      -3.94203750       8.31973743 </v>
   <v>      -3.94203752    1442.12104327      22.07983876 </v>
   <v>       8.31973728      22.07983884    1437.72693817 </v>
  </varray>
  <energy>
   <i name="e_fr_energy">   -252.23010397 </i>
   <i name="e_wo_entrp">   -252.20807885 </i>
   <i name="e_0_energy">     -0.04405024 </i>
  </energy>
  <time name="totalsc">   26.92   27.28</time>
  <eigenvalues>
   <array>
    <dimension dim="1">band</dimension>
    <dimension dim="2">kpoint</dimension>
    <dimension dim="3">spin</dimension>
    <field>eigene</field>
    <field>occ</field>
    <set>
     <set comment="spin 1">
      <set comment="kpoint 1">
       <r>   -4.8504    1.0000 </r>
       <r>   -3.7003    1.0000 </r>
       <r>   -3.5507    1.0000 </r>
       <r>   -3.4541    1.0000 </r>
       <r>   -2.9936    1.0000 </r>
       <r>   -2.8511    1.0000 </r>
       <r>   -2.5579    1.0000 </r>
       <r>   -2.2278    1.0000 </r>
       <r>   -2.1177    1.0000 </r>
       <r>   -2.0119    1.0000 </r>
       <r>   -1.7755    1.0000 </r>
       <r>   -1.6332    1.0000 </r>
       <r>   -1.6016    1.0000 </r>
       <r>   -1.3723    1.0000 </r>
       <r>   -1.1366    1.0000 </r>
       <r>   -0.9257    1.0000 </r>
       <r>   -0.7933    1.0000 </r>
       <r>   -0.6813    1.0000 </r>
       <r>   -0.4115    1.0000 </r>
       <r>   -0.2201    1.0000 </r>
       <r>    0.0206    1.0000 </r>
       <r>    0.2632    1.0000 </r>
       <r>    0.4186    1.0000 </r>
       <r>    0.5905    1.0000 </r>
       <r>    0.6377    1.0000 </r>
       <r>    0.6836    1.0000 </r>
       <r>    0.8467    1.0000 </r>
       <r>    0.9286    1.0000 </r>
       <r>    1.0948    1.0000 </r>
       <r>    1.1606    1.0000 </r>
       <r>    1.3693    1.0000 </r>
       <r>    1.6370    1.0000 </r>
       <r>    1.6905    1.0000 </r>
       <r>    1.8567    1.0000 </r>
       <r>    1.9209    1.0000 </r>
       <r>    2.0084    1.0000 </r>
       <r>    2.0891    1.0000 </r>
       <r>    2.1402    1.0000 </r>
       <r>    2.1669    1.0000 </r>
       <r>    2.2622    1.0000 </r>
       <r>    2.3242    1.0000 </r>
       <r>    2.4276    1.0000 </r>
       <r>    2.5748    1.0000 </r>
       <r>    2.6623    1.0000 </r>
       <r>    2.7123    1.0000 </r>
       <r>    2.8302    1.0000 </r>
       <r>    2.9295    1.0000 </r>
       <r>    2.9425    1.0000 </r>
       <r>    3.0048    1.0000 </r>
       <r>    3.1732    1.0000 </r>
       <r>    3.2234    1.0000 </r>
       <r>    3.3203    1.0000 </r>
       <r>    3.3504    1.0000 </r>
       <r>    3.5327    1.0000 </r>
       <r>    3.6328    1.0000 </r>
       <r>    3.6662    1.0000 </r>
       <r>    3.7688    1.0000 </r>
       <r>    3.8748    1.0000 </r>
       <r>    3.9290    1.0000 </r>
       <r>    3.9901    1.0000 </r>
       <r>    4.0602    1.0000 </r>
       <r>    4.0790    1.0000 </r>
       <r>    4.2622    1.0000 </r>
       <r>    4.4278    1.0000 </r>
       <r>    4.5951    1.0000 </r>
       <r>    4.7076    1.0000 </r>
       <r>    4.8601    1.0000 </r>
       <r>    4.9620    1.0000 </r>
       <r>    5.0770    1.0000 </r>
       <r>    5.1194    1.0000 </r>
       <r>    5.2347    1.0000 </r>
       <r>    5.3734    1.0000 </r>
       <r>    5.5174    1.0000 </r>
       <r>    5.5282    1.0000 </r>
       <r>    5.6049    1.0000 </r>
       <r>    5.7015    1.0000 </r>
       <r>    5.7982    1.0000 </r>
       <r>    5.9323    1.0000 </r>
       <r>    6.0649    1.0000 </r>
       <r>    6.2448    1.0000 </r>
       <r>    6.3120    1.0000 </r>
       <r>    6.4240    1.0000 </r>
       <r>    6.5076    1.0000 </r>
       <r>    6.6278    1.0000 </r>
       <r>    6.6596    1.0000 </r>
       <r>    6.7487    1.0000 </r>
       <r>    6.8400    1.0000 </r>
       <r>    6.9150    1.0000 </r>
       <r>    7.0027    1.0000 </r>
       <r>    7.0614    1.0000 </r>
       <r>    7.1846    1.0000 </r>
       <r>    7.2128    1.0000 </r>
       <r>    7.2737    1.0000 </r>
       <r>    7.3682    1.0000 </r>
       <r>    7.4563    1.0000 </r>
       <r>    7.5254    1.0000 </r>
       <r>    7.5704    1.0000 </r>
       <r>    7.6085    1.0000 </r>
       <r>    7.6996    1.0000 </r>
       <r>    7.7109    1.0000 </r>
       <r>    7.8230    1.0000 </r>
       <r>    7.8395    1.0000 </r>
       <r>    7.8611    1.0000 </r>
       <r>    7.9607    1.0000 </r>
       <r>    8.0026    1.0000 </r>
       <r>    8.1111    1.0000 </r>
       <r>    8.2520    1.0000 </r>
       <r>    8.2599    1.0000 </r>
       <r>    8.3227    1.0000 </r>
       <r>    8.4023    1.0000 </r>
       <r>    8.4685    1.0000 </r>
       <r>    8.5377    1.0000 </r>
       <r>    8.5740    1.0000 </r>
       <r>    8.5997    1.0000 </r>
       <r>    8.6697    1.0000 </r>
       <r>    8.6896    1.0000 </r>
       <r>    8.7682    1.0000 </r>
       <r>    8.7885    1.0000 </r>
       <r>    8.8062    1.0000 </r>
       <r>    8.9028    1.0000 </r>
       <r>    8.9550    1.0000 </r>
       <r>    9.0428    1.0000 </r>
       <r>    9.0756    1.0000 </r>
       <r>    9.0876    1.0000 </r>
       <r>    9.1368    1.0000 </r>
       <r>    9.1820    1.0000 </r>
       <r>    9.2573    1.0000 </r>
       <r>    9.3204    1.0000 </r>
       <r>    9.3868    1.0000 </r>
       <r>    9.5254    1.0000 </r>
       <r>    9.5695    1.0000 </r>
       <r>    9.6675    1.0000 </r>
       <r>    9.7204    1.0000 </r>
       <r>    9.7728    1.0000 </r>
       <r>    9.8056    1.0000 </r>
       <r>    9.8625    1.0000 </r>
       <r>    9.8838    1.0000 </r>
       <r>    9.9545    1.0000 </r>
       <r>   10.0478    1.0000 </r>
       <r>   10.1285    1.0000 </r>
       <r>   10.1852    1.0000 </r>
       <r>   10.2504    1.0000 </r>
       <r>   10.3071    1.0000 </r>
       <r>   10.4344    1.0000 </r>
       <r>   10.4729    1.0000 </r>
       <r>   10.5773    1.0000 </r>
       <r>   10.6217    1.0000 </r>
       <r>   10.6445    1.0000 </r>
       <r>   10.7172    1.0000 </r>
       <r>   10.7860    1.0000 </r>
       <r>   10.8219    1.0000 </r>
       <r>   10.9219    1.0000 </r>
       <r>   10.9693    1.0000 </r>
       <r>   11.0406    1.0000 </r>
       <r>   11.0934    1.0000 </r>
       <r>   11.2036    1.0000 </r>
       <r>   11.3128    1.0000 </r>
       <r>   11.3281    1.0000 </r>
       <r>   11.4172    1.0000 </r>
       <r>   11.4707    1.0000 </r>
       <r>   11.5186    1.0000 </r>
       <r>   11.5988    1.0000 </r>
       <r>   11.6627    1.0000 </r>
       <r>   11.6899    1.0000 </r>
       <r>   11.7644    1.0000 </r>
       <r>   11.8322    1.0000 </r>
       <r>   11.8822    1.0000 </r>
       <r>   11.9488    1.0000 </r>
       <r>   11.9836    1.0000 </r>
       <r>   12.0854    1.0000 </r>
       <r>   12.1747    1.0000 </r>
       <r>   12.1848    1.0000 </r>
       <r>   12.2602    1.0000 </r>
       <r>   12.2944    1.0000 </r>
       <r>   12.3589    1.0000 </r>
       <r>   12.3855    1.0000 </r>
       <r>   12.4650    1.0000 </r>
       <r>   12.4999    1.0000 </r>
       <r>   12.6295    1.0000 </r>
       <r>   12.6653    1.0000 </r>
       <r>   12.7028    1.0000 </r>
       <r>   12.7483    1.0000 </r>
       <r>   12.8965    1.0000 </r>
       <r>   12.9169    1.0000 </r>
       <r>   12.9934    1.0000 </r>
       <r>   13.0399    1.0000 </r>
       <r>   13.1666    1.0000 </r>
       <r>   13.2277    1.0000 </r>
       <r>   13.2714    1.0000 </r>
       <r>   13.4844    1.0000 </r>
       <r>   13.4912    1.0000 </r>
       <r>   13.6228    1.0000 </r>
       <r>   13.7739    1.0000 </r>
       <r>   13.7910    1.0000 </r>
       <r>   13.8993    1.0000 </r>
       <r>   13.9765    1.0000 </r>
       <r>   13.9976    1.0000 </r>
       <r>   14.0386    1.0000 </r>
       <r>   14.0610    0.9998 </r>
       <r>   14.1547    0.7994 </r>
       <r>   14.2207    0.1523 </r>
       <r>   14.2420    0.0516 </r>
       <r>   14.3088    0.0002 </r>
       <r>   14.3990    0.0000 </r>
       <r>   14.4776    0.0000 </r>
       <r>   14.5563    0.0000 </r>
       <r>   14.5831    0.0000 </r>
       <r>   14.6073    0.0000 </r>
       <r>   14.6277    0.0000 </r>
       <r>   14.6928    0.0000 </r>
       <r>   14.8013    0.0000 </r>
       <r>   14.8230    0.0000 </r>
       <r>   14.8730    0.0000 </r>
       <r>   14.9415    0.0000 </r>
       <r>   15.0331    0.0000 </r>
       <r>   15.0737    0.0000 </r>
       <r>   15.1263    0.0000 </r>
       <r>   15.1781    0.0000 </r>
       <r>   15.1980    0.0000 </r>
       <r>   15.2453    0.0000 </r>
       <r>   15.2755    0.0000 </r>
       <r>   15.3517    0.0000 </r>
       <r>   15.3816    0.0000 </r>
       <r>   15.4625    0.0000 </r>
       <r>   15.5063    0.0000 </r>
       <r>   15.5311    0.0000 </r>
       <r>   15.6090    0.0000 </r>
       <r>   15.6631    0.0000 </r>
       <r>   15.6917    0.0000 </r>
       <r>   15.7293    0.0000 </r>
       <r>   15.7632    0.0000 </r>
       <r>   15.8019    0.0000 </r>
       <r>   15.8147    0.0000 </r>
       <r>   15.8951    0.0000 </r>
       <r>   16.0036    0.0000 </r>
       <r>   16.0557    0.0000 </r>
       <r>   16.0750    0.0000 </r>
       <r>   16.1490    0.0000 </r>
       <r>   16.2280    0.0000 </r>
       <r>   16.2393    0.0000 </r>
       <r>   16.3026    0.0000 </r>
       <r>   16.3316    0.0000 </r>
       <r>   16.3672    0.0000 </r>
       <r>   16.4422    0.0000 </r>
       <r>   16.5620    0.0000 </r>
       <r>   16.5803    0.0000 </r>
       <r>   16.6021    0.0000 </r>
       <r>   16.7213    0.0000 </r>
       <r>   16.7338    0.0000 </r>
       <r>   16.7771    0.0000 </r>
       <r>   16.8108    0.0000 </r>
       <r>   16.9080    0.0000 </r>
       <r>   16.9325    0.0000 </r>
       <r>   16.9835    0.0000 </r>
       <r>   17.0320    0.0000 </r>
       <r>   17.1084    0.0000 </r>
       <r>   17.1828    0.0000 </r>
       <r>   17.2240    0.0000 </r>
       <r>   17.2428    0.0000 </r>
       <r>   17.2871    0.0000 </r>
       <r>   17.3026    0.0000 </r>
       <r>   17.4089    0.0000 </r>
       <r>   17.4346    0.0000 </r>
       <r>   17.4600    0.0000 </r>
       <r>   17.5385    0.0000 </r>
       <r>   17.5662    0.0000 </r>
       <r>   17.5925    0.0000 </r>
       <r>   17.6896    0.0000 </r>
       <r>   17.7817    0.0000 </r>
       <r>   17.8045    0.0000 </r>
       <r>   17.9304    0.0000 </r>
       <r>   17.9507    0.0000 </r>
       <r>   17.9920    0.0000 </r>
       <r>   18.0646    0.0000 </r>
       <r>   18.1335    0.0000 </r>
       <r>   18.1671    0.0000 </r>
       <r>   18.1955    0.0000 </r>
       <r>   18.2082    0.0000 </r>
       <r>   18.2962    0.0000 </r>
       <r>   18.3861    0.0000 </r>
       <r>   18.4404    0.0000 </r>
       <r>   18.4730    0.0000 </r>
       <r>   18.5833    0.0000 </r>
       <r>   18.6184    0.0000 </r>
       <r>   18.6460    0.0000 </r>
       <r>   18.6833    0.0000 </r>
       <r>   18.7578    0.0000 </r>
       <r>   18.8508    0.0000 </r>
       <r>   18.9023    0.0000 </r>
       <r>   18.9196    0.0000 </r>
       <r>   18.9584    0.0000 </r>
       <r>   19.0242    0.0000 </r>
       <r>   19.1180    0.0000 </r>
       <r>   19.1411    0.0000 </r>
       <r>   19.2064    0.0000 </r>
       <r>   19.2290    0.0000 </r>
       <r>   19.2731    0.0000 </r>
       <r>   19.3177    0.0000 </r>
       <r>   19.3823    0.0000 </r>
       <r>   19.4151    0.0000 </r>
       <r>   19.5261    0.0000 </r>
       <r>   19.5712    0.0000 </r>
       <r>   19.6758    0.0000 </r>
       <r>   19.7809    0.0000 </r>
      </set>
     </set>
     <set comment="spin 2">
      <set comment="kpoint 1">
       <r>   -4.8504    1.0000 </r>
       <r>   -3.7003    1.0000 </r>
       <r>   -3.5506    1.0000 </r>
       <r>   -3.4540    1.0000 </r>
       <r>   -2.9935    1.0000 </r>
       <r>   -2.8509    1.0000 </r>
       <r>   -2.5578    1.0000 </r>
       <r>   -2.2277    1.0000 </r>
       <r>   -2.1176    1.0000 </r>
       <r>   -2.0118    1.0000 </r>
       <r>   -1.7754    1.0000 </r>
       <r>   -1.6331    1.0000 </r>
       <r>   -1.6015    1.0000 </r>
       <r>   -1.3722    1.0000 </r>
       <r>   -1.1365    1.0000 </r>
       <r>   -0.9256    1.0000 </r>
       <r>   -0.7931    1.0000 </r>
       <r>   -0.6811    1.0000 </r>
       <r>   -0.4114    1.0000 </r>
       <r>   -0.2200    1.0000 </r>
       <r>    0.0207    1.0000 </r>
       <r>    0.2634    1.0000 </r>
       <r>    0.4187    1.0000 </r>
       <r>    0.5906    1.0000 </r>
       <r>    0.6378    1.0000 </r>
       <r>    0.6838    1.0000 </r>
       <r>    0.8468    1.0000 </r>
       <r>    0.9287    1.0000 </r>
       <r>    1.0949    1.0000 </r>
       <r>    1.1607    1.0000 </r>
       <r>    1.3694    1.0000 </r>
       <r>    1.6371    1.0000 </r>
       <r>    1.6906    1.0000 </r>
       <r>    1.8568    1.0000 </r>
       <r>    1.9210    1.0000 </r>
       <r>    2.0085    1.0000 </r>
       <r>    2.0892    1.0000 </r>
       <r>    2.1403    1.0000 </r>
       <r>    2.1670    1.0000 </r>
       <r>    2.2623    1.0000 </r>
       <r>    2.3243    1.0000 </r>
       <r>    2.4277    1.0000 </r>
       <r>    2.5749    1.0000 </r>
       <r>    2.6624    1.0000 </r>
       <r>    2.7124    1.0000 </r>
       <r>    2.8303    1.0000 </r>
       <r>    2.9297    1.0000 </r>
       <r>    2.9426    1.0000 </r>
       <r>    3.0049    1.0000 </r>
       <r>    3.1734    1.0000 </r>
       <r>    3.2235    1.0000 </r>
       <r>    3.3205    1.0000 </r>
       <r>    3.3506    1.0000 </r>
       <r>    3.5328    1.0000 </r>
       <r>    3.6330    1.0000 </r>
       <r>    3.6663    1.0000 </r>
       <r>    3.7689    1.0000 </r>
       <r>    3.8750    1.0000 </r>
       <r>    3.9291    1.0000 </r>
       <r>    3.9902    1.0000 </r>
       <r>    4.0604    1.0000 </r>
       <r>    4.0791    1.0000 </r>
       <r>    4.2624    1.0000 </r>
       <r>    4.4279    1.0000 </r>
       <r>    4.5953    1.0000 </r>
       <r>    4.7078    1.0000 </r>
       <r>    4.8603    1.0000 </r>
       <r>    4.9622    1.0000 </r>
       <r>    5.0771    1.0000 </r>
       <r>    5.1196    1.0000 </r>
       <r>    5.2348    1.0000 </r>
       <r>    5.3735    1.0000 </r>
       <r>    5.5176    1.0000 </r>
       <r>    5.5284    1.0000 </r>
       <r>    5.6051    1.0000 </r>
       <r>    5.7017    1.0000 </r>
       <r>    5.7984    1.0000 </r>
       <r>    5.9325    1.0000 </r>
       <r>    6.0651    1.0000 </r>
       <r>    6.2450    1.0000 </r>
       <r>    6.3122    1.0000 </r>
       <r>    6.4242    1.0000 </r>
       <r>    6.5077    1.0000 </r>
       <r>    6.6279    1.0000 </r>
       <r>    6.6597    1.0000 </r>
       <r>    6.7488    1.0000 </r>
       <r>    6.8402    1.0000 </r>
       <r>    6.9151    1.0000 </r>
       <r>    7.0029    1.0000 </r>
       <r>    7.0615    1.0000 </r>
       <r>    7.1847    1.0000 </r>
       <r>    7.2129    1.0000 </r>
       <r>    7.2738    1.0000 </r>
       <r>    7.3683    1.0000 </r>
       <r>    7.4565    1.0000 </r>
       <r>    7.5256    1.0000 </r>
       <r>    7.5706    1.0000 </r>
       <r>    7.6086    1.0000 </r>
       <r>    7.6997    1.0000 </r>
       <r>    7.7111    1.0000 </r>
       <r>    7.8231    1.0000 </r>
       <r>    7.8396    1.0000 </r>
       <r>    7.8613    1.0000 </r>
       <r>    7.9609    1.0000 </r>
       <r>    8.0028    1.0000 </r>
       <r>    8.1113    1.0000 </r>
       <r>    8.2521    1.0000 </r>
       <r>    8.2600    1.0000 </r>
       <r>    8.3228    1.0000 </r>
       <r>    8.4024    1.0000 </r>
       <r>    8.4686    1.0000 </r>
       <r>    8.5378    1.0000 </r>
       <r>    8.5741    1.0000 </r>
       <r>    8.5999    1.0000 </r>
       <r>    8.6698    1.0000 </r>
       <r>    8.6898    1.0000 </r>
       <r>    8.7683    1.0000 </r>
       <r>    8.7887    1.0000 </r>
       <r>    8.8063    1.0000 </r>
       <r>    8.9029    1.0000 </r>
       <r>    8.9551    1.0000 </r>
       <r>    9.0429    1.0000 </r>
       <r>    9.0757    1.0000 </r>
       <r>    9.0878    1.0000 </r>
       <r>    9.1369    1.0000 </r>
       <r>    9.1821    1.0000 </r>
       <r>    9.2575    1.0000 </r>
       <r>    9.3205    1.0000 </r>
       <r>    9.3870    1.0000 </r>
       <r>    9.5255    1.0000 </r>
       <r>    9.5697    1.0000 </r>
       <r>    9.6676    1.0000 </r>
       <r>    9.7205    1.0000 </r>
       <r>    9.7730    1.0000 </r>
       <r>    9.8057    1.0000 </r>
       <r>    9.8627    1.0000 </r>
       <r>    9.8840    1.0000 </r>
       <r>    9.9546    1.0000 </r>
       <r>   10.0480    1.0000 </r>
       <r>   10.1286    1.0000 </r>
       <r>   10.1854    1.0000 </r>
       <r>   10.2506    1.0000 </r>
       <r>   10.3073    1.0000 </r>
       <r>   10.4345    1.0000 </r>
       <r>   10.4730    1.0000 </r>
       <r>   10.5774    1.0000 </r>
       <r>   10.6218    1.0000 </r>
       <r>   10.6446    1.0000 </r>
       <r>   10.7174    1.0000 </r>
       <r>   10.7861    1.0000 </r>
       <r>   10.8220    1.0000 </r>
       <r>   10.9221    1.0000 </r>
       <r>   10.9694    1.0000 </r>
       <r>   11.0407    1.0000 </r>
       <r>   11.0935    1.0000 </r>
       <r>   11.2038    1.0000 </r>
       <r>   11.3130    1.0000 </r>
       <r>   11.3283    1.0000 </r>
       <r>   11.4173    1.0000 </r>
       <r>   11.4708    1.0000 </r>
       <r>   11.5187    1.0000 </r>
       <r>   11.5990    1.0000 </r>
       <r>   11.6628    1.0000 </r>
       <r>   11.6900    1.0000 </r>
       <r>   11.7646    1.0000 </r>
       <r>   11.8324    1.0000 </r>
       <r>   11.8824    1.0000 </r>
       <r>   11.9490    1.0000 </r>
       <r>   11.9838    1.0000 </r>
       <r>   12.0856    1.0000 </r>
       <r>   12.1748    1.0000 </r>
       <r>   12.1850    1.0000 </r>
       <r>   12.2604    1.0000 </r>
       <r>   12.2946    1.0000 </r>
       <r>   12.3590    1.0000 </r>
       <r>   12.3857    1.0000 </r>
       <r>   12.4651    1.0000 </r>
       <r>   12.5000    1.0000 </r>
       <r>   12.6297    1.0000 </r>
       <r>   12.6654    1.0000 </r>
       <r>   12.7029    1.0000 </r>
       <r>   12.7485    1.0000 </r>
       <r>   12.8966    1.0000 </r>
       <r>   12.9171    1.0000 </r>
       <r>   12.9936    1.0000 </r>
       <r>   13.0401    1.0000 </r>
       <r>   13.1668    1.0000 </r>
       <r>   13.2279    1.0000 </r>
       <r>   13.2716    1.0000 </r>
       <r>   13.4846    1.0000 </r>
       <r>   13.4914    1.0000 </r>
       <r>   13.6230    1.0000 </r>
       <r>   13.7741    1.0000 </r>
       <r>   13.7912    1.0000 </r>
       <r>   13.8994    1.0000 </r>
       <r>   13.9766    1.0000 </r>
       <r>   13.9978    1.0000 </r>
       <r>   14.0388    1.0000 </r>
       <r>   14.0611    0.9998 </r>
       <r>   14.1551    0.7963 </r>
       <r>   14.2211    0.1495 </r>
       <r>   14.2422    0.0510 </r>
       <r>   14.3090    0.0002 </r>
       <r>   14.3992    0.0000 </r>
       <r>   14.4778    0.0000 </r>
       <r>   14.5564    0.0000 </r>
       <r>   14.5833    0.0000 </r>
       <r>   14.6075    0.0000 </r>
       <r>   14.6279    0.0000 </r>
       <r>   14.6930    0.0000 </r>
       <r>   14.8014    0.0000 </r>
       <r>   14.8231    0.0000 </r>
       <r>   14.8731    0.0000 </r>
       <r>   14.9416    0.0000 </r>
       <r>   15.0333    0.0000 </r>
       <r>   15.0739    0.0000 </r>
       <r>   15.1264    0.0000 </r>
       <r>   15.1783    0.0000 </r>
       <r>   15.1982    0.0000 </r>
       <r>   15.2455    0.0000 </r>
       <r>   15.2756    0.0000 </r>
       <r>   15.3518    0.0000 </r>
       <r>   15.3818    0.0000 </r>
       <r>   15.4626    0.0000 </r>
       <r>   15.5064    0.0000 </r>
       <r>   15.5313    0.0000 </r>
       <r>   15.6092    0.0000 </r>
       <r>   15.6633    0.0000 </r>
       <r>   15.6919    0.0000 </r>
       <r>   15.7295    0.0000 </r>
       <r>   15.7634    0.0000 </r>
       <r>   15.8021    0.0000 </r>
       <r>   15.8149    0.0000 </r>
       <r>   15.8952    0.0000 </r>
       <r>   16.0038    0.0000 </r>
       <r>   16.0558    0.0000 </r>
       <r>   16.0751    0.0000 </r>
       <r>   16.1491    0.0000 </r>
       <r>   16.2282    0.0000 </r>
       <r>   16.2394    0.0000 </r>
       <r>   16.3027    0.0000 </r>
       <r>   16.3317    0.0000 </r>
       <r>   16.3673    0.0000 </r>
       <r>   16.4423    0.0000 </r>
       <r>   16.5622    0.0000 </r>
       <r>   16.5804    0.0000 </r>
       <r>   16.6022    0.0000 </r>
       <r>   16.7215    0.0000 </r>
       <r>   16.7340    0.0000 </r>
       <r>   16.7772    0.0000 </r>
       <r>   16.8110    0.0000 </r>
       <r>   16.9082    0.0000 </r>
       <r>   16.9327    0.0000 </r>
       <r>   16.9837    0.0000 </r>
       <r>   17.0322    0.0000 </r>
       <r>   17.1086    0.0000 </r>
       <r>   17.1830    0.0000 </r>
       <r>   17.2242    0.0000 </r>
       <r>   17.2429    0.0000 </r>
       <r>   17.2872    0.0000 </r>
       <r>   17.3027    0.0000 </r>
       <r>   17.4091    0.0000 </r>
       <r>   17.4348    0.0000 </r>
       <r>   17.4602    0.0000 </r>
       <r>   17.5386    0.0000 </r>
       <r>   17.5664    0.0000 </r>
       <r>   17.5927    0.0000 </r>
       <r>   17.6897    0.0000 </r>
       <r>   17.7818    0.0000 </r>
       <r>   17.8047    0.0000 </r>
       <r>   17.9306    0.0000 </r>
       <r>   17.9509    0.0000 </r>
       <r>   17.9922    0.0000 </r>
       <r>   18.0647    0.0000 </r>
       <r>   18.1337    0.0000 </r>
       <r>   18.1673    0.0000 </r>
       <r>   18.1957    0.0000 </r>
       <r>   18.2084    0.0000 </r>
       <r>   18.2964    0.0000 </r>
       <r>   18.3863    0.0000 </r>
       <r>   18.4406    0.0000 </r>
       <r>   18.4731    0.0000 </r>
       <r>   18.5834    0.0000 </r>
       <r>   18.6186    0.0000 </r>
       <r>   18.6462    0.0000 </r>
       <r>   18.6834    0.0000 </r>
       <r>   18.7580    0.0000 </r>
       <r>   18.8509    0.0000 </r>
       <r>   18.9025    0.0000 </r>
       <r>   18.9198    0.0000 </r>
       <r>   18.9585    0.0000 </r>
       <r>   19.0243    0.0000 </r>
       <r>   19.1181    0.0000 </r>
       <r>   19.1415    0.0000 </r>
       <r>   19.2075    0.0000 </r>
       <r>   19.2295    0.0000 </r>
       <r>   19.2742    0.0000 </r>
       <r>   19.3076    0.0000 </r>
       <r>   19.3755    0.0000 </r>
       <r>   19.4233    0.0000 </r>
       <r>   19.5377    0.0000 </r>
[...]
       <r>    -2.8287     8.0288     5.7349 </r>
       <r>    -2.7383     2.9242     5.9993 </r>
       <r>    -2.6479     0.0678     6.0054 </r>
       <r>    -2.5575     5.5059     6.5031 </r>
       <r>    -2.4671     5.4392     6.9948 </r>
       <r>    -2.3767     0.0572     7.0000 </r>
       <r>    -2.2863     0.5383     7.0487 </r>
       <r>    -2.1959     8.6319     7.8290 </r>
       <r>    -2.1055     8.9362     8.6368 </r>
       <r>    -2.0151     9.1153     9.4609 </r>
       <r>    -1.9247     5.8880     9.9931 </r>
       <r>    -1.8343     0.6041    10.0477 </r>
       <r>    -1.7439     8.4772    10.8141 </r>
       <r>    -1.6535     5.9489    11.3519 </r>
       <r>    -1.5631    16.4291    12.8371 </r>
       <r>    -1.4727     1.8255    13.0021 </r>
       <r>    -1.3823     4.2579    13.3870 </r>
       <r>    -1.2919     6.6525    13.9884 </r>
       <r>    -1.2015     0.4931    14.0330 </r>
       <r>    -1.1111     8.0829    14.7637 </r>
       <r>    -1.0207     2.6478    15.0030 </r>
       <r>    -0.9303     4.9059    15.4465 </r>
       <r>    -0.8399     7.0633    16.0850 </r>
       <r>    -0.7495     9.2107    16.9177 </r>
       <r>    -0.6591     9.0182    17.7329 </r>
       <r>    -0.5687     2.9460    17.9993 </r>
       <r>    -0.4783     0.3295    18.0291 </r>
       <r>    -0.3879     7.9310    18.7460 </r>
       <r>    -0.2975     2.9589    19.0135 </r>
       <r>    -0.2071     6.9520    19.6420 </r>
       <r>    -0.1167     3.9418    19.9983 </r>
       <r>    -0.0263     1.0322    20.0916 </r>
       <r>     0.0641     8.8306    20.8899 </r>
       <r>     0.1545     1.2285    21.0010 </r>
       <r>     0.2449     3.3114    21.3003 </r>
       <r>     0.3353     7.6084    21.9881 </r>
       <r>     0.4257     6.5215    22.5776 </r>
       <r>     0.5161     4.8363    23.0148 </r>
       <r>     0.6065     9.5195    23.8754 </r>
       <r>     0.6969    19.0288    25.5956 </r>
       <r>     0.7873     4.9631    26.0443 </r>
       <r>     0.8777     9.2748    26.8827 </r>
       <r>     0.9681    10.8883    27.8670 </r>
       <r>     1.0585     3.1612    28.1528 </r>
       <r>     1.1489    12.7420    29.3047 </r>
       <r>     1.2393     7.5467    29.9869 </r>
       <r>     1.3297     1.5876    30.1304 </r>
       <r>     1.4201     8.7785    30.9240 </r>
       <r>     1.5105     0.8422    31.0001 </r>
       <r>     1.6009     1.7508    31.1584 </r>
       <r>     1.6913    14.2297    32.4448 </r>
       <r>     1.7817     6.2728    33.0118 </r>
       <r>     1.8721     8.1698    33.7504 </r>
       <r>     1.9625    13.5425    34.9746 </r>
       <r>     2.0529    11.9452    36.0545 </r>
       <r>     2.1433    18.4396    37.7214 </r>
       <r>     2.2337    16.1369    39.1802 </r>
       <r>     2.3241    14.1458    40.4590 </r>
       <r>     2.4145     9.8449    41.3490 </r>
       <r>     2.5049     7.3041    42.0093 </r>
       <r>     2.5953     8.1563    42.7466 </r>
       <r>     2.6857    13.5084    43.9677 </r>
       <r>     2.7761    11.7054    45.0259 </r>
       <r>     2.8665     9.6634    45.8995 </r>
       <r>     2.9569    17.9579    47.5229 </r>
       <r>     3.0473    15.0439    48.8829 </r>
       <r>     3.1377     3.1064    49.1637 </r>
       <r>     3.2281    14.7287    50.4952 </r>
       <r>     3.3185    12.8400    51.6559 </r>
       <r>     3.4089    14.2541    52.9445 </r>
       <r>     3.4993     2.5105    53.1714 </r>
       <r>     3.5897     9.9558    54.0714 </r>
       <r>     3.6801    16.5283    55.5656 </r>
       <r>     3.7705    10.5312    56.5176 </r>
       <r>     3.8609     9.3972    57.3671 </r>
       <r>     3.9513    16.4645    58.8555 </r>
       <r>     4.0417    16.7453    60.3693 </r>
       <r>     4.1321    17.0604    61.9115 </r>
       <r>     4.2225     2.4109    62.1295 </r>
       <r>     4.3129     8.7884    62.9239 </r>
       <r>     4.4033     3.5256    63.2427 </r>
       <r>     4.4937     8.0516    63.9705 </r>
       <r>     4.5841     4.4831    64.3758 </r>
       <r>     4.6745     8.6778    65.1603 </r>
       <r>     4.7649     8.7380    65.9502 </r>
       <r>     4.8553     5.4703    66.4447 </r>
       <r>     4.9457     9.5986    67.3124 </r>
       <r>     5.0361     8.8618    68.1135 </r>
       <r>     5.1265    15.3022    69.4969 </r>
       <r>     5.2169     8.9114    70.3024 </r>
       <r>     5.3073     7.8286    71.0102 </r>
       <r>     5.3977     8.2169    71.7530 </r>
       <r>     5.4881     6.3706    72.3289 </r>
       <r>     5.5785    19.6477    74.1050 </r>
       <r>     5.6689    11.4604    75.1410 </r>
       <r>     5.7593    10.4152    76.0826 </r>
       <r>     5.8497     9.4419    76.9361 </r>
       <r>     5.9401     7.1813    77.5853 </r>
       <r>     6.0305     6.3685    78.1610 </r>
       <r>     6.1209     8.6494    78.9429 </r>
       <r>     6.2113     2.5386    79.1724 </r>
       <r>     6.3017    12.7963    80.3292 </r>
       <r>     6.3921     9.3078    81.1706 </r>
       <r>     6.4825    11.2544    82.1880 </r>
       <r>     6.5729     9.3589    83.0341 </r>
       <r>     6.6633    14.9903    84.3892 </r>
       <r>     6.7537    12.9259    85.5577 </r>
       <r>     6.8441    11.1163    86.5626 </r>
       <r>     6.9345    12.9240    87.7310 </r>
       <r>     7.0249    12.7338    88.8821 </r>
       <r>     7.1153    11.9544    89.9628 </r>
       <r>     7.2057    13.3526    91.1698 </r>
       <r>     7.2961    17.4344    92.7459 </r>
       <r>     7.3865    10.7717    93.7197 </r>
       <r>     7.4769    12.0070    94.8051 </r>
       <r>     7.5673    18.3509    96.4640 </r>
       <r>     7.6577    18.0214    98.0932 </r>
       <r>     7.7481    18.7610    99.7892 </r>
       <r>     7.8385    17.9831   101.4148 </r>
       <r>     7.9289    19.3701   103.1659 </r>
       <r>     8.0193    16.2493   104.6349 </r>
       <r>     8.1097     9.3565   105.4807 </r>
       <r>     8.2001     6.9565   106.1095 </r>
       <r>     8.2905    19.2172   107.8468 </r>
       <r>     8.3809    15.2650   109.2267 </r>
       <r>     8.4713    14.4820   110.5359 </r>
       <r>     8.5617    18.9515   112.2491 </r>
       <r>     8.6521    23.4332   114.3675 </r>
       <r>     8.7425    21.1035   116.2753 </r>
       <r>     8.8329    26.3573   118.6580 </r>
       <r>     8.9233    13.7514   119.9011 </r>
       <r>     9.0137    14.5015   121.2120 </r>
       <r>     9.1041    26.5781   123.6147 </r>
       <r>     9.1945    22.1899   125.6207 </r>
       <r>     9.2849    14.5666   126.9375 </r>
       <r>     9.3753    15.1711   128.3090 </r>
       <r>     9.4657     8.0179   129.0338 </r>
       <r>     9.5561    12.4275   130.1572 </r>
       <r>     9.6465    12.3954   131.2778 </r>
       <r>     9.7369    17.2002   132.8327 </r>
       <r>     9.8273    22.6249   134.8780 </r>
       <r>     9.9177    22.5570   136.9171 </r>
       <r>    10.0081    12.6916   138.0644 </r>
       <r>    10.0985    11.7544   139.1270 </r>
       <r>    10.1889    15.5852   140.5359 </r>
       <r>    10.2793    16.2170   142.0019 </r>
       <r>    10.3697    10.9951   142.9959 </r>
       <r>    10.4601    12.4626   144.1225 </r>
       <r>    10.5505    12.2964   145.2341 </r>
       <r>    10.6409    21.1033   147.1419 </r>
       <r>    10.7313    17.3509   148.7104 </r>
       <r>    10.8217    18.0174   150.3392 </r>
       <r>    10.9121    12.1250   151.4353 </r>
       <r>    11.0025    16.8460   152.9581 </r>
       <r>    11.0929    16.2062   154.4232 </r>
       <r>    11.1833     9.4305   155.2757 </r>
       <r>    11.2737     9.8951   156.1702 </r>
       <r>    11.3641    18.4395   157.8372 </r>
       <r>    11.4545    15.1777   159.2092 </r>
       <r>    11.5449    17.7628   160.8150 </r>
       <r>    11.6353    14.4971   162.1255 </r>
       <r>    11.7257    20.0978   163.9424 </r>
       <r>    11.8161    14.7949   165.2798 </r>
       <r>    11.9065    17.5086   166.8626 </r>
       <r>    11.9969    18.8008   168.5622 </r>
       <r>    12.0873    10.6684   169.5266 </r>
       <r>    12.1777    15.8076   170.9556 </r>
       <r>    12.2681    20.4562   172.8049 </r>
       <r>    12.3585    20.7203   174.6780 </r>
       <r>    12.4489    18.5426   176.3543 </r>
       <r>    12.5393    16.5898   177.8540 </r>
       <r>    12.6297     9.0809   178.6749 </r>
       <r>    12.7201    23.8436   180.8304 </r>
       <r>    12.8105    12.5811   181.9677 </r>
       <r>    12.9009    10.0422   182.8755 </r>
       <r>    12.9913    18.3652   184.5357 </r>
       <r>    13.0817    14.8927   185.8820 </r>
       <r>    13.1721     8.1478   186.6186 </r>
       <r>    13.2625    17.8372   188.2311 </r>
       <r>    13.3529     8.3862   188.9892 </r>
       <r>    13.4433     2.4215   189.2081 </r>
       <r>    13.5337    17.6915   190.8074 </r>
       <r>    13.6241     7.7985   191.5124 </r>
       <r>    13.7145     6.0140   192.0561 </r>
       <r>    13.8049    15.5567   193.4624 </r>
       <r>    13.8953    11.0766   194.4637 </r>
       <r>    13.9857    17.4594   196.0420 </r>
       <r>    14.0761    27.3478   198.5143 </r>
       <r>    14.1665    13.1322   199.7014 </r>
       <r>    14.2569    20.7033   201.5730 </r>
       <r>    14.3473    15.0091   202.9298 </r>
       <r>    14.4377    11.7277   203.9900 </r>
       <r>    14.5281    13.4674   205.2075 </r>
       <r>    14.6185    29.0644   207.8349 </r>
       <r>    14.7089    20.2431   209.6649 </r>
       <r>    14.7993    11.9223   210.7427 </r>
       <r>    14.8897    21.8196   212.7152 </r>
       <r>    14.9801    13.4421   213.9303 </r>
       <r>    15.0705    15.9599   215.3731 </r>
       <r>    15.1609    21.2484   217.2940 </r>
       <r>    15.2513    26.9104   219.7267 </r>
       <r>    15.3417    19.4132   221.4816 </r>
       <r>    15.4321    18.1806   223.1252 </r>
       <r>    15.5225    21.1666   225.0386 </r>
       <r>    15.6129    17.4943   226.6201 </r>
       <r>    15.7033    23.7945   228.7711 </r>
       <r>    15.7937    29.6374   231.4504 </r>
       <r>    15.8841    20.9157   233.3411 </r>
       <r>    15.9745     9.5469   234.2042 </r>
       <r>    16.0649    19.3544   235.9538 </r>
       <r>    16.1553    18.0243   237.5832 </r>
       <r>    16.2457    19.1866   239.3177 </r>
       <r>    16.3361    24.8214   241.5616 </r>
       <r>    16.4265    18.9670   243.2762 </r>
       <r>    16.5169     9.4071   244.1266 </r>
       <r>    16.6073    23.2947   246.2324 </r>
       <r>    16.6977    13.0446   247.4117 </r>
       <r>    16.7881    26.2725   249.7867 </r>
       <r>    16.8785    16.0117   251.2342 </r>
       <r>    16.9689    21.5050   253.1782 </r>
       <r>    17.0593    18.4236   254.8437 </r>
       <r>    17.1497    13.5877   256.0720 </r>
       <r>    17.2401    23.7348   258.2177 </r>
       <r>    17.3305    27.2369   260.6799 </r>
       <r>    17.4209    15.8278   262.1107 </r>
       <r>    17.5113    23.0941   264.1984 </r>
       <r>    17.6017    24.4718   266.4107 </r>
       <r>    17.6921    12.3841   267.5302 </r>
       <r>    17.7825    13.6913   268.7679 </r>
       <r>    17.8729    13.9999   270.0335 </r>
       <r>    17.9633    18.0831   271.6682 </r>
       <r>    18.0537    18.5648   273.3465 </r>
       <r>    18.1441    17.9083   274.9654 </r>
       <r>    18.2345    29.6177   277.6428 </r>
       <r>    18.3249    13.1430   278.8310 </r>
       <r>    18.4153    13.8344   280.0816 </r>
       <r>    18.5057    19.0401   281.8028 </r>
       <r>    18.5961    13.0906   282.9862 </r>
       <r>    18.6865    26.6947   285.3994 </r>
       <r>    18.7769    14.5819   286.7176 </r>
       <r>    18.8673    13.1958   287.9105 </r>
       <r>    18.9577    26.6325   290.3181 </r>
       <r>    19.0481    16.0769   291.7715 </r>
       <r>    19.1385    15.9570   293.2140 </r>
       <r>    19.2289    23.3546   295.3252 </r>
       <r>    19.3193    24.9401   297.5798 </r>
       <r>    19.4097    17.7142   299.1812 </r>
       <r>    19.5001    10.5333   300.1334 </r>
       <r>    19.5905    14.5037   301.4445 </r>
       <r>    19.6809    13.6751   302.6808 </r>
       <r>    19.7713     5.4680   303.1751 </r>
       <r>    19.8617     8.5517   303.9481 </r>
       <r>    19.9521     0.5735   304.0000 </r>
       <r>    20.0425     0.0002   304.0000 </r>
       <r>    20.1329     0.0000   304.0000 </r>
       <r>    20.2233     0.0000   304.0000 </r>
       <r>    20.3137     0.0000   304.0000 </r>
       <r>    20.4041     0.0000   304.0000 </r>
       <r>    20.4945     0.0000   304.0000 </r>
       <r>    20.5849     0.0000   304.0000 </r>
       <r>    20.6753     0.0000   304.0000 </r>
       <r>    20.7657     0.0000   304.0000 </r>
       <r>    20.8561     0.0000   304.0000 </r>
       <r>    20.9465     0.0000   304.0000 </r>
       <r>    21.0369     0.0000   304.0000 </r>
      </set>
     </set>
    </array>
   </total>
  </dos>
 </calculation>
 <structure name="finalpos" >
  <crystal>
   <varray name="basis" >
    <v>      10.21149500       0.00000000       0.00000000 </v>
    <v>       0.00000000      10.21149500       0.00000000 </v>
    <v>       0.00000000       0.00000000      10.21149500 </v>
   </varray>
   <i name="volume">   1064.79986425 </i>
   <varray name="rec_basis" >
    <v>       0.09792885       0.00000000       0.00000000 </v>
    <v>       0.00000000       0.09792885       0.00000000 </v>
    <v>       0.00000000       0.00000000       0.09792885 </v>
   </varray>
  </crystal>
  <varray name="positions" >
   <v>       0.80000000       0.60000000       0.20000000 </v>
   <v>       0.80000000       0.80000000       0.00000000 </v>
   <v>       0.60000000       0.20000000       0.40000000 </v>
   <v>       0.80000000       0.20000000       0.80000000 </v>
   <v>       0.40000000       0.00000000       0.40000000 </v>
   <v>       0.60000000       0.80000000       0.80000000 </v>
   <v>       0.60000000       0.60000000       0.40000000 </v>
   <v>       0.60000000       0.60000000       0.20000000 </v>
   <v>       0.40000000       0.00000000       0.20000000 </v>
   <v>       0.00000000       0.00000000       0.00000000 </v>
   <v>       0.20000000       0.20000000       0.40000000 </v>
   <v>       0.80000000       0.20000000       0.40000000 </v>
   <v>       0.00000000       0.20000000       0.80000000 </v>
   <v>       0.80000000       0.20000000       0.60000000 </v>
   <v>       0.00000000       0.20000000       0.60000000 </v>
   <v>       0.20000000       0.00000000       0.40000000 </v>
   <v>       0.00000000       0.00000000       0.60000000 </v>
   <v>       0.20000000       0.20000000       0.00000000 </v>
   <v>       0.40000000       0.20000000       0.40000000 </v>
   <v>       0.60000000       0.80000000       0.40000000 </v>
   <v>       0.60000000       0.80000000       0.00000000 </v>
   <v>       0.00000000       0.40000000       0.60000000 </v>
   <v>       0.60000000       0.20000000       0.00000000 </v>
   <v>       0.40000000       0.60000000       0.40000000 </v>
   <v>       0.80000000       0.00000000       0.40000000 </v>
   <v>       0.00000000       0.40000000       0.20000000 </v>
   <v>       0.20000000       0.00000000       0.00000000 </v>
   <v>       0.20000000       0.40000000       0.40000000 </v>
   <v>       0.40000000       0.40000000       0.00000000 </v>
   <v>       0.60000000       0.00000000       0.80000000 </v>
   <v>       0.60000000       0.00000000       0.40000000 </v>
   <v>       0.20000000       0.00000000       0.80000000 </v>
   <v>       0.20000000       0.80000000       0.00000000 </v>
   <v>       0.20000000       0.60000000       0.40000000 </v>
   <v>       0.20000000       0.40000000       0.20000000 </v>
   <v>       0.00000000       0.80000000       0.00000000 </v>
   <v>       0.40000000       0.80000000       0.20000000 </v>
   <v>       0.80000000       0.60000000       0.40000000 </v>
   <v>       0.00000000       0.20000000       0.20000000 </v>
   <v>       0.40000000       0.00000000       0.00000000 </v>
   <v>       0.60000000       0.60000000       0.00000000 </v>
   <v>       0.60000000       0.40000000       0.60000000 </v>
   <v>       0.00000000       0.00000000       0.20000000 </v>
   <v>       0.00000000       0.60000000       0.60000000 </v>
   <v>       0.40000000       0.20000000       0.60000000 </v>
   <v>       0.20000000       0.40000000       0.60000000 </v>
   <v>       0.80000000       0.20000000       0.20000000 </v>
   <v>       0.60000000       0.20000000       0.60000000 </v>
   <v>       0.40000000       0.20000000       0.80000000 </v>
   <v>       0.80000000       0.00000000       0.00000000 </v>
   <v>       0.20000000       0.20000000       0.80000000 </v>
   <v>       0.20000000       0.60000000       0.20000000 </v>
   <v>       0.40000000       0.00000000       0.80000000 </v>
   <v>       0.00000000       0.60000000       0.80000000 </v>
   <v>       0.40000000       0.40000000       0.20000000 </v>
   <v>       0.00000000       0.80000000       0.80000000 </v>
   <v>       0.20000000       0.60000000       0.60000000 </v>
   <v>       0.80000000       0.80000000       0.40000000 </v>
   <v>       0.20000000       0.60000000       0.00000000 </v>
   <v>       0.60000000       0.00000000       0.60000000 </v>
   <v>       0.60000000       0.00000000       0.00000000 </v>
   <v>       0.20000000       0.00000000       0.60000000 </v>
   <v>       0.60000000       0.60000000       0.60000000 </v>
   <v>       0.20000000       0.80000000       0.20000000 </v>
   <v>       0.40000000       0.40000000       0.80000000 </v>
   <v>       0.20000000       0.00000000       0.20000000 </v>
   <v>       0.00000000       0.60000000       0.40000000 </v>
   <v>       0.20000000       0.20000000       0.60000000 </v>
   <v>       0.80000000       0.60000000       0.80000000 </v>
   <v>       0.80000000       0.80000000       0.80000000 </v>
   <v>       0.60000000       0.20000000       0.80000000 </v>
   <v>       0.20000000       0.60000000       0.80000000 </v>
   <v>       0.20000000       0.80000000       0.80000000 </v>
   <v>       0.60000000       0.80000000       0.60000000 </v>
   <v>       0.60000000       0.40000000       0.00000000 </v>
   <v>       0.40000000       0.80000000       0.40000000 </v>
   <v>       0.40000000       0.80000000       0.00000000 </v>
   <v>       0.40000000       0.40000000       0.40000000 </v>
   <v>       0.00000000       0.60000000       0.00000000 </v>
   <v>       0.60000000       0.60000000       0.80000000 </v>
   <v>       0.60000000       0.40000000       0.40000000 </v>
   <v>       0.20000000       0.80000000       0.40000000 </v>
   <v>       0.80000000       0.00000000       0.80000000 </v>
   <v>       0.40000000       0.60000000       0.60000000 </v>
   <v>       0.40000000       0.20000000       0.00000000 </v>
   <v>       0.40000000       0.20000000       0.20000000 </v>
   <v>       0.40000000       0.60000000       0.00000000 </v>
   <v>       0.80000000       0.00000000       0.60000000 </v>
   <v>       0.40000000       0.80000000       0.80000000 </v>
   <v>       0.60000000       0.00000000       0.20000000 </v>
   <v>       0.40000000       0.00000000       0.60000000 </v>
   <v>       0.60000000       0.40000000       0.20000000 </v>
   <v>       0.40000000       0.80000000       0.60000000 </v>
   <v>       0.80000000       0.40000000       0.00000000 </v>
   <v>       0.00000000       0.80000000       0.40000000 </v>
   <v>       0.00000000       0.20000000       0.00000000 </v>
   <v>       0.20000000       0.40000000       0.00000000 </v>
   <v>       0.00000000       0.80000000       0.60000000 </v>
   <v>       0.20000000       0.80000000       0.60000000 </v>
   <v>       0.20000000       0.20000000       0.20000000 </v>
  </varray>
 </structure>
</modeling>
