unknown system                          
           1
    10.211495    0.000000    0.000000
     0.000000   10.211495    0.000000
     0.000000    0.000000   10.211495
   Si
 100
Direct configuration=     1
   0.80000000  0.60000000  0.20000000
   0.80000000  0.80000000  0.00000000
   0.60000000  0.20000000  0.40000000
   0.80000000  0.20000000  0.80000000
   0.40000000  0.00000000  0.40000000
   0.60000000  0.80000000  0.80000000
   0.60000000  0.60000000  0.40000000
   0.60000000  0.60000000  0.20000000
   0.40000000  0.00000000  0.20000000
   0.00000000  0.00000000  0.00000000
   0.20000000  0.20000000  0.40000000
   0.80000000  0.20000000  0.40000000
   0.00000000  0.20000000  0.80000000
   0.80000000  0.20000000  0.60000000
   0.00000000  0.20000000  0.60000000
   0.20000000  0.00000000  0.40000000
   0.00000000  0.00000000  0.60000000
   0.20000000  0.20000000  0.00000000
   0.40000000  0.20000000  0.40000000
   0.60000000  0.80000000  0.40000000
   0.60000000  0.80000000  0.00000000
   0.00000000  0.40000000  0.60000000
   0.60000000  0.20000000  0.00000000
   0.40000000  0.60000000  0.40000000
   0.80000000  0.00000000  0.40000000
   0.00000000  0.40000000  0.20000000
   0.20000000  0.00000000  0.00000000
   0.20000000  0.40000000  0.40000000
   0.40000000  0.40000000  0.00000000
   0.60000000  0.00000000  0.80000000
   0.60000000  0.00000000  0.40000000
   0.20000000  0.00000000  0.80000000
   0.20000000  0.80000000  0.00000000
   0.20000000  0.60000000  0.40000000
   0.20000000  0.40000000  0.20000000
   0.00000000  0.80000000  0.00000000
   0.40000000  0.80000000  0.20000000
   0.80000000  0.60000000  0.40000000
   0.00000000  0.20000000  0.20000000
   0.40000000  0.00000000  0.00000000
   0.60000000  0.60000000  0.00000000
   0.60000000  0.40000000  0.60000000
   0.00000000  0.00000000  0.20000000
   0.00000000  0.60000000  0.60000000
   0.40000000  0.20000000  0.60000000
   0.20000000  0.40000000  0.60000000
   0.80000000  0.20000000  0.20000000
   0.60000000  0.20000000  0.60000000
   0.40000000  0.20000000  0.80000000
   0.80000000  0.00000000  0.00000000
   0.20000000  0.20000000  0.80000000
   0.20000000  0.60000000  0.20000000
   0.40000000  0.00000000  0.80000000
   0.00000000  0.60000000  0.80000000
   0.40000000  0.40000000  0.20000000
   0.00000000  0.80000000  0.80000000
   0.20000000  0.60000000  0.60000000
   0.80000000  0.80000000  0.40000000
   0.20000000  0.60000000  0.00000000
   0.60000000  0.00000000  0.60000000
   0.60000000  0.00000000  0.00000000
   0.20000000  0.00000000  0.60000000
   0.60000000  0.60000000  0.60000000
   0.20000000  0.80000000  0.20000000
   0.40000000  0.40000000  0.80000000
   0.20000000  0.00000000  0.20000000
   0.00000000  0.60000000  0.40000000
   0.20000000  0.20000000  0.60000000
   0.80000000  0.60000000  0.80000000
   0.80000000  0.80000000  0.80000000
   0.60000000  0.20000000  0.80000000
   0.20000000  0.60000000  0.80000000
   0.20000000  0.80000000  0.80000000
   0.60000000  0.80000000  0.60000000
   0.60000000  0.40000000  0.00000000
   0.40000000  0.80000000  0.40000000
   0.40000000  0.80000000  0.00000000
   0.40000000  0.40000000  0.40000000
   0.00000000  0.60000000  0.00000000
   0.60000000  0.60000000  0.80000000
   0.60000000  0.40000000  0.40000000
   0.20000000  0.80000000  0.40000000
   0.80000000  0.00000000  0.80000000
   0.40000000  0.60000000  0.60000000
   0.40000000  0.20000000  0.00000000
   0.40000000  0.20000000  0.20000000
   0.40000000  0.60000000  0.00000000
   0.80000000  0.00000000  0.60000000
   0.40000000  0.80000000  0.80000000
   0.60000000  0.00000000  0.20000000
   0.40000000  0.00000000  0.60000000
   0.60000000  0.40000000  0.20000000
   0.40000000  0.80000000  0.60000000
   0.80000000  0.40000000  0.00000000
   0.00000000  0.80000000  0.40000000
   0.00000000  0.20000000  0.00000000
   0.20000000  0.40000000  0.00000000
   0.00000000  0.80000000  0.60000000
   0.20000000  0.80000000  0.60000000
   0.20000000  0.20000000  0.20000000
