 100 100   0   0
  0.1064800E+02  0.1021150E-08  0.1021150E-08  0.1021150E-08  0.5000000E-15
  1.000000000000000E-004
  CAR 
 unknown system                          
     21.68207209     -4.16126858  301     14.73287952      1.00000000
     -4.161  0.0000E+00  0.0000E+00  0.0000E+00  0.0000E+00
     -4.075  0.0000E+00  0.0000E+00  0.0000E+00  0.0000E+00
     -3.989  0.0000E+00  0.0000E+00  0.0000E+00  0.0000E+00
     -3.903  0.0000E+00  0.0000E+00  0.0000E+00  0.0000E+00
     -3.817  0.0000E+00  0.0000E+00  0.0000E+00  0.0000E+00
     -3.731  0.0000E+00  0.0000E+00  0.0000E+00  0.0000E+00
     -3.644  0.0000E+00  0.0000E+00  0.0000E+00  0.0000E+00
     -3.558  0.0000E+00  0.0000E+00  0.0000E+00  0.0000E+00
     -3.472  0.0000E+00  0.0000E+00  0.0000E+00  0.0000E+00
     -3.386  0.0000E+00  0.0000E+00  0.0000E+00  0.0000E+00
     -3.300  0.0000E+00  0.0000E+00  0.0000E+00  0.0000E+00
     -3.214  0.7725E-09  0.7029E-09  0.6655E-10  0.6055E-10
     -3.128  0.3883E-03  0.3655E-03  0.3345E-04  0.3148E-04
     -3.041  0.7020E+00  0.6823E+00  0.6051E-01  0.5881E-01
     -2.955  0.8726E+01  0.8700E+01  0.8122E+00  0.8083E+00
     -2.869  0.2175E+01  0.2220E+01  0.9996E+00  0.9995E+00
     -2.783  0.5177E-02  0.5450E-02  0.1000E+01  0.1000E+01
     -2.697  0.4909E-07  0.5344E-07  0.1000E+01  0.1000E+01
     -2.611  0.1289E-14  0.2578E-14  0.1000E+01  0.1000E+01
     -2.525  0.0000E+00  0.0000E+00  0.1000E+01  0.1000E+01
     -2.438  0.0000E+00  0.0000E+00  0.1000E+01  0.1000E+01
     -2.352  0.0000E+00  0.0000E+00  0.1000E+01  0.1000E+01
     -2.266  0.0000E+00  0.0000E+00  0.1000E+01  0.1000E+01
     -2.180  0.0000E+00  0.0000E+00  0.1000E+01  0.1000E+01
     -2.094  0.8225E-10  0.7421E-10  0.1000E+01  0.1000E+01
     -2.008  0.9072E-04  0.8479E-04  0.1000E+01  0.1000E+01
     -1.922  0.3464E+00  0.3348E+00  0.1030E+01  0.1029E+01
     -1.835  0.7897E+01  0.7849E+01  0.1710E+01  0.1705E+01
     -1.749  0.4645E+01  0.4673E+01  0.2110E+01  0.2108E+01
     -1.663  0.1488E+02  0.1482E+02  0.3393E+01  0.3384E+01
     -1.577  0.1351E+02  0.1353E+02  0.4556E+01  0.4550E+01
     -1.491  0.6731E+01  0.6766E+01  0.5136E+01  0.5132E+01
     -1.405  0.1189E+02  0.1185E+02  0.6160E+01  0.6153E+01
     -1.319  0.9287E+01  0.9353E+01  0.6960E+01  0.6959E+01
     -1.232  0.4596E+00  0.4746E+00  0.7000E+01  0.7000E+01
     -1.146  0.1600E-03  0.1708E-03  0.7000E+01  0.7000E+01
     -1.060  0.1959E-09  0.2166E-09  0.7000E+01  0.7000E+01
     -0.974  0.0000E+00  0.0000E+00  0.7000E+01  0.7000E+01
     -0.888  0.0000E+00  0.0000E+00  0.7000E+01  0.7000E+01
     -0.802  0.1999E-10  0.1804E-10  0.7000E+01  0.7000E+01
     -0.715  0.3561E-04  0.3326E-04  0.7000E+01  0.7000E+01
     -0.629  0.2173E+00  0.2097E+00  0.7019E+01  0.7018E+01
     -0.543  0.8746E+01  0.8654E+01  0.7772E+01  0.7764E+01
     -0.457  0.1359E+02  0.1365E+02  0.8943E+01  0.8939E+01
     -0.371  0.1223E+02  0.1215E+02  0.9997E+01  0.9986E+01
     -0.285  0.2176E+02  0.2175E+02  0.1187E+02  0.1186E+02
     -0.199  0.2540E+02  0.2540E+02  0.1406E+02  0.1405E+02
     -0.112  0.1640E+02  0.1644E+02  0.1547E+02  0.1546E+02
     -0.026  0.1480E+02  0.1483E+02  0.1675E+02  0.1674E+02
      0.060  0.9771E+01  0.9765E+01  0.1759E+02  0.1758E+02
      0.146  0.5004E+01  0.5060E+01  0.1802E+02  0.1802E+02
      0.232  0.7558E+01  0.7514E+01  0.1867E+02  0.1867E+02
      0.318  0.3806E+01  0.3859E+01  0.1900E+02  0.1900E+02
      0.404  0.2331E-01  0.2428E-01  0.1900E+02  0.1900E+02
      0.491  0.6244E-06  0.6700E-06  0.1900E+02  0.1900E+02
      0.577  0.5413E-13  0.5928E-13  0.1900E+02  0.1900E+02
      0.663  0.0000E+00  0.0000E+00  0.1900E+02  0.1900E+02
      0.749  0.3826E-09  0.3485E-09  0.1900E+02  0.1900E+02
      0.835  0.2472E-03  0.2327E-03  0.1900E+02  0.1900E+02
      0.921  0.5764E+00  0.5597E+00  0.1905E+02  0.1905E+02
      1.007  0.1139E+02  0.1131E+02  0.2003E+02  0.2002E+02
      1.094  0.1726E+02  0.1725E+02  0.2152E+02  0.2151E+02
      1.180  0.1885E+02  0.1886E+02  0.2314E+02  0.2313E+02
      1.266  0.2019E+02  0.2017E+02  0.2488E+02  0.2487E+02
      1.352  0.1679E+02  0.1682E+02  0.2633E+02  0.2632E+02
      1.438  0.7623E+01  0.7703E+01  0.2698E+02  0.2698E+02
      1.524  0.1820E+00  0.1889E+00  0.2700E+02  0.2700E+02
      1.610  0.2574E-04  0.2763E-04  0.2700E+02  0.2700E+02
      1.697  0.1230E-10  0.1367E-10  0.2700E+02  0.2700E+02
      1.783  0.0000E+00  0.0000E+00  0.2700E+02  0.2700E+02
      1.869  0.0000E+00  0.0000E+00  0.2700E+02  0.2700E+02
      1.955  0.0000E+00  0.0000E+00  0.2700E+02  0.2700E+02
      2.041  0.6444E-15  0.6444E-15  0.2700E+02  0.2700E+02
      2.127  0.3245E-07  0.2975E-07  0.2700E+02  0.2700E+02
      2.213  0.4110E-02  0.3898E-02  0.2700E+02  0.2700E+02
      2.300  0.2307E+01  0.2256E+01  0.2720E+02  0.2719E+02
      2.386  0.1692E+02  0.1690E+02  0.2866E+02  0.2865E+02
      2.472  0.1261E+02  0.1259E+02  0.2974E+02  0.2973E+02
      2.558  0.1805E+02  0.1803E+02  0.3130E+02  0.3129E+02
      2.644  0.1655E+02  0.1660E+02  0.3272E+02  0.3272E+02
      2.730  0.3194E+01  0.3262E+01  0.3300E+02  0.3300E+02
      2.816  0.1193E-01  0.1259E-01  0.3300E+02  0.3300E+02
      2.903  0.1974E-06  0.2162E-06  0.3300E+02  0.3300E+02
      2.989  0.1031E-13  0.1160E-13  0.3300E+02  0.3300E+02
      3.075  0.0000E+00  0.0000E+00  0.3300E+02  0.3300E+02
      3.161  0.1065E-07  0.9788E-08  0.3300E+02  0.3300E+02
      3.247  0.2031E-02  0.1927E-02  0.3300E+02  0.3300E+02
      3.333  0.1480E+01  0.1447E+01  0.3313E+02  0.3312E+02
      3.419  0.1077E+02  0.1074E+02  0.3406E+02  0.3405E+02
      3.506  0.1985E+02  0.1977E+02  0.3577E+02  0.3575E+02
      3.592  0.2676E+02  0.2674E+02  0.3807E+02  0.3806E+02
      3.678  0.3121E+02  0.3118E+02  0.4076E+02  0.4074E+02
      3.764  0.2477E+02  0.2484E+02  0.4289E+02  0.4288E+02
      3.850  0.2390E+02  0.2385E+02  0.4495E+02  0.4494E+02
      3.936  0.3468E+02  0.3467E+02  0.4794E+02  0.4792E+02
      4.022  0.2747E+02  0.2750E+02  0.5031E+02  0.5029E+02
      4.109  0.2708E+02  0.2707E+02  0.5264E+02  0.5262E+02
      4.195  0.2229E+02  0.2236E+02  0.5456E+02  0.5455E+02
      4.281  0.7431E+01  0.7468E+01  0.5520E+02  0.5519E+02
      4.367  0.1247E+02  0.1244E+02  0.5627E+02  0.5627E+02
      4.453  0.8168E+01  0.8239E+01  0.5698E+02  0.5698E+02
      4.539  0.2693E+00  0.2786E+00  0.5700E+02  0.5700E+02
      4.625  0.3001E-03  0.2907E-03  0.5700E+02  0.5700E+02
      4.712  0.5666E+00  0.5517E+00  0.5705E+02  0.5705E+02
      4.798  0.1017E+02  0.1010E+02  0.5792E+02  0.5792E+02
      4.884  0.1620E+02  0.1618E+02  0.5932E+02  0.5931E+02
      4.970  0.1820E+02  0.1818E+02  0.6089E+02  0.6088E+02
      5.056  0.2574E+02  0.2568E+02  0.6310E+02  0.6309E+02
      5.142  0.3058E+02  0.3055E+02  0.6574E+02  0.6572E+02
      5.228  0.4217E+02  0.4215E+02  0.6937E+02  0.6935E+02
      5.315  0.3417E+02  0.3425E+02  0.7231E+02  0.7230E+02
      5.401  0.1842E+02  0.1842E+02  0.7390E+02  0.7389E+02
      5.487  0.3064E+02  0.3056E+02  0.7654E+02  0.7652E+02
      5.573  0.3019E+02  0.3029E+02  0.7914E+02  0.7913E+02
      5.659  0.1263E+02  0.1269E+02  0.8023E+02  0.8022E+02
      5.745  0.8498E+01  0.8543E+01  0.8096E+02  0.8096E+02
      5.831  0.4509E+00  0.4643E+00  0.8100E+02  0.8100E+02
      5.918  0.1544E-03  0.1640E-03  0.8100E+02  0.8100E+02
      6.004  0.1855E-09  0.2034E-09  0.8100E+02  0.8100E+02
      6.090  0.0000E+00  0.0000E+00  0.8100E+02  0.8100E+02
      6.176  0.0000E+00  0.0000E+00  0.8100E+02  0.8100E+02
      6.262  0.0000E+00  0.0000E+00  0.8100E+02  0.8100E+02
      6.348  0.0000E+00  0.0000E+00  0.8100E+02  0.8100E+02
      6.435  0.0000E+00  0.0000E+00  0.8100E+02  0.8100E+02
      6.521  0.0000E+00  0.0000E+00  0.8100E+02  0.8100E+02
      6.607  0.0000E+00  0.0000E+00  0.8100E+02  0.8100E+02
      6.693  0.0000E+00  0.0000E+00  0.8100E+02  0.8100E+02
      6.779  0.0000E+00  0.0000E+00  0.8100E+02  0.8100E+02
      6.865  0.0000E+00  0.0000E+00  0.8100E+02  0.8100E+02
      6.951  0.0000E+00  0.0000E+00  0.8100E+02  0.8100E+02
      7.038  0.0000E+00  0.0000E+00  0.8100E+02  0.8100E+02
      7.124  0.0000E+00  0.0000E+00  0.8100E+02  0.8100E+02
      7.210  0.5735E-13  0.5155E-13  0.8100E+02  0.8100E+02
      7.296  0.7502E-06  0.6969E-06  0.8100E+02  0.8100E+02
      7.382  0.3334E-01  0.3196E-01  0.8100E+02  0.8100E+02
      7.468  0.7274E+01  0.7159E+01  0.8163E+02  0.8162E+02
      7.554  0.2800E+02  0.2799E+02  0.8404E+02  0.8403E+02
      7.641  0.1636E+02  0.1638E+02  0.8545E+02  0.8544E+02
      7.727  0.2021E+02  0.2020E+02  0.8719E+02  0.8718E+02
      7.813  0.3038E+02  0.3031E+02  0.8981E+02  0.8979E+02
      7.899  0.1454E+02  0.1467E+02  0.9106E+02  0.9106E+02
      7.985  0.1048E+02  0.1045E+02  0.9196E+02  0.9196E+02
      8.071  0.1059E+02  0.1063E+02  0.9288E+02  0.9287E+02
      8.157  0.1439E+01  0.1475E+01  0.9300E+02  0.9300E+02
      8.244  0.1919E-02  0.2032E-02  0.9300E+02  0.9300E+02
      8.330  0.1567E+00  0.1503E+00  0.9301E+02  0.9301E+02
      8.416  0.9834E+01  0.9716E+01  0.9386E+02  0.9385E+02
      8.502  0.1415E+02  0.1423E+02  0.9508E+02  0.9508E+02
      8.588  0.1362E+02  0.1357E+02  0.9625E+02  0.9624E+02
      8.674  0.1716E+02  0.1716E+02  0.9773E+02  0.9772E+02
      8.760  0.2203E+02  0.2197E+02  0.9963E+02  0.9962E+02
      8.847  0.2592E+02  0.2593E+02  0.1019E+03  0.1018E+03
      8.933  0.2814E+02  0.2809E+02  0.1043E+03  0.1043E+03
      9.019  0.2978E+02  0.2981E+02  0.1069E+03  0.1068E+03
      9.105  0.2291E+02  0.2294E+02  0.1088E+03  0.1088E+03
      9.191  0.1768E+02  0.1769E+02  0.1103E+03  0.1103E+03
      9.277  0.2504E+02  0.2502E+02  0.1125E+03  0.1125E+03
      9.363  0.2465E+02  0.2462E+02  0.1146E+03  0.1146E+03
      9.450  0.2437E+02  0.2441E+02  0.1167E+03  0.1167E+03
      9.536  0.2578E+02  0.2571E+02  0.1189E+03  0.1189E+03
      9.622  0.2095E+02  0.2107E+02  0.1208E+03  0.1207E+03
      9.708  0.8186E+01  0.8166E+01  0.1215E+03  0.1215E+03
      9.794  0.1554E+02  0.1557E+02  0.1228E+03  0.1228E+03
      9.880  0.2362E+01  0.2413E+01  0.1230E+03  0.1230E+03
      9.966  0.1055E+00  0.1022E+00  0.1230E+03  0.1230E+03
     10.053  0.9644E+01  0.9507E+01  0.1238E+03  0.1238E+03
     10.139  0.2909E+02  0.2908E+02  0.1263E+03  0.1263E+03
     10.225  0.1988E+02  0.1995E+02  0.1281E+03  0.1281E+03
     10.311  0.1476E+02  0.1472E+02  0.1293E+03  0.1293E+03
     10.397  0.2622E+02  0.2615E+02  0.1316E+03  0.1316E+03
     10.483  0.2929E+02  0.2931E+02  0.1341E+03  0.1341E+03
     10.569  0.2580E+02  0.2580E+02  0.1363E+03  0.1363E+03
     10.656  0.2644E+02  0.2644E+02  0.1386E+03  0.1386E+03
     10.742  0.2915E+02  0.2914E+02  0.1411E+03  0.1411E+03
     10.828  0.2942E+02  0.2943E+02  0.1437E+03  0.1436E+03
     10.914  0.1550E+02  0.1563E+02  0.1450E+03  0.1450E+03
     11.000  0.8862E+01  0.8812E+01  0.1458E+03  0.1457E+03
     11.086  0.1208E+02  0.1211E+02  0.1468E+03  0.1468E+03
     11.172  0.2362E+01  0.2408E+01  0.1470E+03  0.1470E+03
     11.259  0.8223E-02  0.8441E-02  0.1470E+03  0.1470E+03
     11.345  0.1970E+01  0.1925E+01  0.1472E+03  0.1472E+03
     11.431  0.2227E+02  0.2217E+02  0.1491E+03  0.1491E+03
     11.517  0.2159E+02  0.2156E+02  0.1509E+03  0.1509E+03
     11.603  0.2311E+02  0.2315E+02  0.1529E+03  0.1529E+03
     11.689  0.1676E+02  0.1677E+02  0.1544E+03  0.1544E+03
     11.775  0.2708E+02  0.2699E+02  0.1567E+03  0.1567E+03
     11.862  0.2343E+02  0.2347E+02  0.1587E+03  0.1587E+03
     11.948  0.3043E+02  0.3042E+02  0.1614E+03  0.1613E+03
     12.034  0.2388E+02  0.2392E+02  0.1634E+03  0.1634E+03
     12.120  0.2167E+02  0.2169E+02  0.1653E+03  0.1653E+03
     12.206  0.1448E+02  0.1450E+02  0.1665E+03  0.1665E+03
     12.292  0.2227E+02  0.2221E+02  0.1684E+03  0.1684E+03
     12.378  0.1740E+02  0.1749E+02  0.1699E+03  0.1699E+03
     12.465  0.9946E+01  0.9955E+01  0.1708E+03  0.1708E+03
     12.551  0.2321E+01  0.2364E+01  0.1710E+03  0.1710E+03
     12.637  0.6094E-02  0.6384E-02  0.1710E+03  0.1710E+03
     12.723  0.1262E-01  0.1205E-01  0.1710E+03  0.1710E+03
     12.809  0.3408E+01  0.3348E+01  0.1713E+03  0.1713E+03
     12.895  0.1607E+02  0.1608E+02  0.1727E+03  0.1727E+03
     12.981  0.5834E+01  0.5843E+01  0.1732E+03  0.1732E+03
     13.068  0.1694E+02  0.1688E+02  0.1746E+03  0.1746E+03
     13.154  0.1586E+02  0.1590E+02  0.1760E+03  0.1760E+03
     13.240  0.1057E+02  0.1062E+02  0.1769E+03  0.1769E+03
     13.326  0.1166E+01  0.1183E+01  0.1770E+03  0.1770E+03
     13.412  0.8879E+01  0.8792E+01  0.1778E+03  0.1778E+03
     13.498  0.1314E+02  0.1321E+02  0.1789E+03  0.1789E+03
     13.584  0.9833E+00  0.1010E+01  0.1790E+03  0.1790E+03
     13.671  0.5637E+00  0.5476E+00  0.1790E+03  0.1790E+03
     13.757  0.9457E+01  0.9401E+01  0.1799E+03  0.1799E+03
     13.843  0.1908E+02  0.1902E+02  0.1815E+03  0.1815E+03
     13.929  0.1961E+02  0.1966E+02  0.1832E+03  0.1832E+03
     14.015  0.9004E+01  0.9074E+01  0.1840E+03  0.1840E+03
     14.101  0.7080E+01  0.6978E+01  0.1846E+03  0.1846E+03
     14.188  0.2355E+02  0.2356E+02  0.1866E+03  0.1866E+03
     14.274  0.2632E+02  0.2623E+02  0.1889E+03  0.1889E+03
     14.360  0.3184E+02  0.3190E+02  0.1916E+03  0.1916E+03
     14.446  0.1745E+02  0.1751E+02  0.1931E+03  0.1931E+03
     14.532  0.1860E+02  0.1854E+02  0.1947E+03  0.1947E+03
     14.618  0.2675E+02  0.2677E+02  0.1970E+03  0.1970E+03
     14.704  0.2487E+02  0.2462E+02  0.1992E+03  0.1991E+03
     14.791  0.2257E+02  0.2277E+02  0.2011E+03  0.2011E+03
     14.877  0.1206E+02  0.1215E+02  0.2022E+03  0.2021E+03
     14.963  0.2318E+02  0.2312E+02  0.2042E+03  0.2041E+03
     15.049  0.1780E+02  0.1780E+02  0.2057E+03  0.2057E+03
     15.135  0.2848E+02  0.2848E+02  0.2081E+03  0.2081E+03
     15.221  0.1905E+02  0.1902E+02  0.2098E+03  0.2098E+03
     15.307  0.3710E+02  0.3708E+02  0.2130E+03  0.2130E+03
     15.394  0.2393E+02  0.2399E+02  0.2150E+03  0.2150E+03
     15.480  0.2108E+02  0.2111E+02  0.2169E+03  0.2168E+03
     15.566  0.2285E+02  0.2277E+02  0.2188E+03  0.2188E+03
     15.652  0.2504E+02  0.2509E+02  0.2210E+03  0.2210E+03
     15.738  0.2626E+02  0.2618E+02  0.2232E+03  0.2232E+03
     15.824  0.3348E+02  0.3353E+02  0.2261E+03  0.2261E+03
     15.910  0.2140E+02  0.2136E+02  0.2280E+03  0.2280E+03
     15.997  0.3179E+02  0.3186E+02  0.2307E+03  0.2307E+03
     16.083  0.1391E+02  0.1395E+02  0.2319E+03  0.2319E+03
     16.169  0.1896E+02  0.1885E+02  0.2335E+03  0.2335E+03
     16.255  0.2896E+02  0.2897E+02  0.2360E+03  0.2360E+03
     16.341  0.2260E+02  0.2266E+02  0.2380E+03  0.2380E+03
     16.427  0.2245E+02  0.2240E+02  0.2399E+03  0.2399E+03
     16.513  0.2380E+02  0.2384E+02  0.2420E+03  0.2420E+03
     16.600  0.2031E+02  0.2037E+02  0.2437E+03  0.2437E+03
     16.686  0.1140E+02  0.1136E+02  0.2447E+03  0.2447E+03
     16.772  0.2441E+02  0.2437E+02  0.2468E+03  0.2468E+03
     16.858  0.1409E+02  0.1422E+02  0.2480E+03  0.2480E+03
     16.944  0.1458E+02  0.1448E+02  0.2493E+03  0.2493E+03
     17.030  0.8710E+01  0.8818E+01  0.2500E+03  0.2500E+03
     17.116  0.7669E+01  0.7619E+01  0.2507E+03  0.2507E+03
     17.203  0.3707E+01  0.3769E+01  0.2510E+03  0.2510E+03
     17.289  0.2160E-01  0.2266E-01  0.2510E+03  0.2510E+03
     17.375  0.5472E-06  0.5947E-06  0.2510E+03  0.2510E+03
     17.461  0.4382E-13  0.4897E-13  0.2510E+03  0.2510E+03
     17.547  0.0000E+00  0.0000E+00  0.2510E+03  0.2510E+03
     17.633  0.0000E+00  0.0000E+00  0.2510E+03  0.2510E+03
     17.719  0.4848E-10  0.4383E-10  0.2510E+03  0.2510E+03
     17.806  0.6405E-04  0.5992E-04  0.2510E+03  0.2510E+03
     17.892  0.2906E+00  0.2810E+00  0.2510E+03  0.2510E+03
     17.978  0.7837E+01  0.7779E+01  0.2517E+03  0.2517E+03
     18.064  0.1071E+02  0.1070E+02  0.2526E+03  0.2526E+03
     18.150  0.8991E+01  0.8988E+01  0.2534E+03  0.2534E+03
     18.236  0.1582E+02  0.1584E+02  0.2548E+03  0.2548E+03
     18.322  0.1032E+02  0.1032E+02  0.2556E+03  0.2556E+03
     18.409  0.7861E+01  0.7863E+01  0.2563E+03  0.2563E+03
     18.495  0.7554E+01  0.7607E+01  0.2570E+03  0.2570E+03
     18.581  0.1417E+01  0.1399E+01  0.2571E+03  0.2571E+03
     18.667  0.9084E+01  0.9076E+01  0.2579E+03  0.2579E+03
     18.753  0.8940E+01  0.8864E+01  0.2587E+03  0.2586E+03
     18.839  0.3095E+02  0.3084E+02  0.2613E+03  0.2613E+03
     18.925  0.2959E+02  0.2966E+02  0.2639E+03  0.2639E+03
     19.012  0.2813E+02  0.2812E+02  0.2663E+03  0.2663E+03
     19.098  0.3122E+02  0.3117E+02  0.2690E+03  0.2690E+03
     19.184  0.3447E+02  0.3452E+02  0.2719E+03  0.2719E+03
     19.270  0.2726E+02  0.2729E+02  0.2743E+03  0.2743E+03
     19.356  0.2274E+02  0.2269E+02  0.2763E+03  0.2762E+03
     19.442  0.3420E+02  0.3422E+02  0.2792E+03  0.2792E+03
     19.528  0.2356E+02  0.2355E+02  0.2812E+03  0.2812E+03
     19.615  0.3090E+02  0.3084E+02  0.2839E+03  0.2839E+03
     19.701  0.3593E+02  0.3591E+02  0.2870E+03  0.2870E+03
     19.787  0.2862E+02  0.2856E+02  0.2895E+03  0.2894E+03
     19.873  0.2609E+02  0.2595E+02  0.2917E+03  0.2917E+03
     19.959  0.2589E+02  0.2615E+02  0.2939E+03  0.2939E+03
     20.045  0.2368E+02  0.2591E+02  0.2960E+03  0.2961E+03
     20.131  0.3170E+02  0.3435E+02  0.2987E+03  0.2991E+03
     20.218  0.2308E+02  0.2002E+02  0.3007E+03  0.3008E+03
     20.304  0.1819E+02  0.1366E+02  0.3023E+03  0.3020E+03
     20.390  0.8400E+01  0.1003E+02  0.3030E+03  0.3029E+03
     20.476  0.2397E+01  0.5948E+01  0.3032E+03  0.3034E+03
     20.562  0.8726E+01  0.6953E+01  0.3039E+03  0.3040E+03
     20.648  0.7020E+00  0.1856E+00  0.3040E+03  0.3040E+03
     20.734  0.3883E-03  0.2682E-04  0.3040E+03  0.3040E+03
     20.821  0.7725E-09  0.1308E-10  0.3040E+03  0.3040E+03
     20.907  0.0000E+00  0.0000E+00  0.3040E+03  0.3040E+03
     20.993  0.0000E+00  0.0000E+00  0.3040E+03  0.3040E+03
     21.079  0.0000E+00  0.0000E+00  0.3040E+03  0.3040E+03
     21.165  0.0000E+00  0.0000E+00  0.3040E+03  0.3040E+03
     21.251  0.0000E+00  0.0000E+00  0.3040E+03  0.3040E+03
     21.337  0.0000E+00  0.0000E+00  0.3040E+03  0.3040E+03
     21.424  0.0000E+00  0.0000E+00  0.3040E+03  0.3040E+03
     21.510  0.0000E+00  0.0000E+00  0.3040E+03  0.3040E+03
     21.596  0.0000E+00  0.0000E+00  0.3040E+03  0.3040E+03
     21.682  0.0000E+00  0.0000E+00  0.3040E+03  0.3040E+03
