  100  100    1    2
  0.1064800E+02  0.1021149E-08  0.1021149E-08  0.1021149E-08  0.5000000E-15
  1.000000000000000E-004
  CAR 
 unknown system                          
    400      1    304
 
  0.0000000E+00  0.0000000E+00  0.0000000E+00  0.1000000E+01
    1       -2.986571     -2.986064   1.000000   1.000000
    2       -1.854936     -1.854409   1.000000   1.000000
    3       -1.704763     -1.704280   1.000000   1.000000
    4       -1.663110     -1.662661   1.000000   1.000000
    5       -1.582569     -1.582024   1.000000   1.000000
    6       -1.452540     -1.452042   1.000000   1.000000
    7       -1.380589     -1.380065   1.000000   1.000000
    8       -0.555622     -0.555111   1.000000   1.000000
    9       -0.504168     -0.503651   1.000000   1.000000
   10       -0.393620     -0.393050   1.000000   1.000000
   11       -0.344954     -0.344442   1.000000   1.000000
   12       -0.301784     -0.301280   1.000000   1.000000
   13       -0.252511     -0.252061   1.000000   1.000000
   14       -0.226082     -0.225639   1.000000   1.000000
   15       -0.183791     -0.183256   1.000000   1.000000
   16       -0.108606     -0.108123   1.000000   1.000000
   17       -0.049390     -0.048906   1.000000   1.000000
   18        0.051853      0.052371   1.000000   1.000000
   19        0.216530      0.216984   1.000000   1.000000
   20        0.979825      0.980318   1.000000   1.000000
   21        1.031905      1.032398   1.000000   1.000000
   22        1.099936      1.100403   1.000000   1.000000
   23        1.133265      1.133800   1.000000   1.000000
   24        1.208002      1.208547   1.000000   1.000000
   25        1.243146      1.243584   1.000000   1.000000
   26        1.296951      1.297485   1.000000   1.000000
   27        1.361990      1.362513   1.000000   1.000000
   28        2.333362      2.333874   1.000000   1.000000
   29        2.366310      2.366726   1.000000   1.000000
   30        2.460144      2.460648   1.000000   1.000000
   31        2.514950      2.515410   1.000000   1.000000
   32        2.569208      2.569752   1.000000   1.000000
   33        2.621292      2.621858   1.000000   1.000000
   34        3.373561      3.374043   1.000000   1.000000
   35        3.457637      3.458096   1.000000   1.000000
   36        3.499558      3.500049   1.000000   1.000000
   37        3.528162      3.528641   1.000000   1.000000
   38        3.577068      3.577584   1.000000   1.000000
   39        3.605586      3.606023   1.000000   1.000000
   40        3.638453      3.638997   1.000000   1.000000
   41        3.679882      3.680379   1.000000   1.000000
   42        3.686733      3.687236   1.000000   1.000000
   43        3.741787      3.742291   1.000000   1.000000
   44        3.799920      3.800410   1.000000   1.000000
   45        3.833383      3.833842   1.000000   1.000000
   46        3.878134      3.878627   1.000000   1.000000
   47        3.897328      3.897878   1.000000   1.000000
   48        3.911743      3.912185   1.000000   1.000000
   49        3.953840      3.954388   1.000000   1.000000
   50        3.992469      3.992960   1.000000   1.000000
   51        4.030497      4.030976   1.000000   1.000000
   52        4.065461      4.065951   1.000000   1.000000
   53        4.106552      4.107072   1.000000   1.000000
   54        4.135276      4.135766   1.000000   1.000000
   55        4.184762      4.185334   1.000000   1.000000
   56        4.310589      4.311150   1.000000   1.000000
   57        4.382746      4.383252   1.000000   1.000000
   58        4.770246      4.770699   1.000000   1.000000
   59        4.835920      4.836427   1.000000   1.000000
   60        4.895334      4.895809   1.000000   1.000000
   61        4.948052      4.948629   1.000000   1.000000
   62        5.009202      5.009732   1.000000   1.000000
   63        5.033787      5.034311   1.000000   1.000000
   64        5.070928      5.071382   1.000000   1.000000
   65        5.098700      5.099174   1.000000   1.000000
   66        5.142727      5.143216   1.000000   1.000000
   67        5.169400      5.169992   1.000000   1.000000
   68        5.190880      5.191367   1.000000   1.000000
   69        5.197642      5.198110   1.000000   1.000000
   70        5.226609      5.227087   1.000000   1.000000
   71        5.260046      5.260552   1.000000   1.000000
   72        5.290989      5.291458   1.000000   1.000000
   73        5.303674      5.304197   1.000000   1.000000
   74        5.393695      5.394192   1.000000   1.000000
   75        5.423251      5.423719   1.000000   1.000000
   76        5.456069      5.456604   1.000000   1.000000
   77        5.498169      5.498791   1.000000   1.000000
   78        5.503463      5.503968   1.000000   1.000000
   79        5.537772      5.538251   1.000000   1.000000
   80        5.587515      5.587996   1.000000   1.000000
   81        5.682972      5.683452   1.000000   1.000000
   82        7.484150      7.484637   1.000000   1.000000
   83        7.492469      7.492874   1.000000   1.000000
   84        7.524718      7.525168   1.000000   1.000000
   85        7.572579      7.573116   1.000000   1.000000
   86        7.657800      7.658253   1.000000   1.000000
   87        7.674868      7.675351   1.000000   1.000000
   88        7.759748      7.760199   1.000000   1.000000
   89        7.776695      7.777231   1.000000   1.000000
   90        7.791253      7.791780   1.000000   1.000000
   91        7.831380      7.831877   1.000000   1.000000
   92        7.946317      7.946923   1.000000   1.000000
   93        8.030384      8.030923   1.000000   1.000000
   94        8.409323      8.409895   1.000000   1.000000
   95        8.435636      8.436096   1.000000   1.000000
   96        8.544988      8.545499   1.000000   1.000000
   97        8.602309      8.602797   1.000000   1.000000
   98        8.660806      8.661246   1.000000   1.000000
   99        8.721914      8.722423   1.000000   1.000000
  100        8.751593      8.752069   1.000000   1.000000
  101        8.800844      8.801388   1.000000   1.000000
  102        8.820681      8.821241   1.000000   1.000000
  103        8.882939      8.883413   1.000000   1.000000
  104        8.909287      8.909793   1.000000   1.000000
  105        8.935768      8.936243   1.000000   1.000000
  106        8.973945      8.974442   1.000000   1.000000
  107        8.998038      8.998510   1.000000   1.000000
  108        9.047546      9.048097   1.000000   1.000000
  109        9.083867      9.084423   1.000000   1.000000
  110        9.141508      9.141969   1.000000   1.000000
  111        9.206703      9.207186   1.000000   1.000000
  112        9.239592      9.240130   1.000000   1.000000
  113        9.268980      9.269474   1.000000   1.000000
  114        9.329409      9.329832   1.000000   1.000000
  115        9.366604      9.367099   1.000000   1.000000
  116        9.379870      9.380381   1.000000   1.000000
  117        9.440141      9.440622   1.000000   1.000000
  118        9.488213      9.488722   1.000000   1.000000
  119        9.525537      9.526092   1.000000   1.000000
  120        9.546225      9.546763   1.000000   1.000000
  121        9.595934      9.596450   1.000000   1.000000
  122        9.717106      9.717603   1.000000   1.000000
  123        9.763002      9.763508   1.000000   1.000000
  124       10.051781     10.052228   1.000000   1.000000
  125       10.080792     10.081279   1.000000   1.000000
  126       10.095034     10.095572   1.000000   1.000000
  127       10.149146     10.149649   1.000000   1.000000
  128       10.179013     10.179484   1.000000   1.000000
  129       10.258629     10.259159   1.000000   1.000000
  130       10.327074     10.327628   1.000000   1.000000
  131       10.364963     10.365418   1.000000   1.000000
  132       10.393460     10.393958   1.000000   1.000000
  133       10.425010     10.425570   1.000000   1.000000
  134       10.462406     10.463022   1.000000   1.000000
  135       10.491858     10.492329   1.000000   1.000000
  136       10.550695     10.551198   1.000000   1.000000
  137       10.563807     10.564348   1.000000   1.000000
  138       10.620798     10.621308   1.000000   1.000000
  139       10.651832     10.652323   1.000000   1.000000
  140       10.683711     10.684223   1.000000   1.000000
  141       10.727277     10.727747   1.000000   1.000000
  142       10.750438     10.750935   1.000000   1.000000
  143       10.785206     10.785691   1.000000   1.000000
  144       10.829111     10.829569   1.000000   1.000000
  145       10.846252     10.846805   1.000000   1.000000
  146       10.981491     10.982000   1.000000   1.000000
  147       11.056863     11.057347   1.000000   1.000000
  148       11.386469     11.386888   1.000000   1.000000
  149       11.403843     11.404350   1.000000   1.000000
  150       11.439563     11.440059   1.000000   1.000000
  151       11.518099     11.518653   1.000000   1.000000
  152       11.520982     11.521615   1.000000   1.000000
  153       11.591291     11.591750   1.000000   1.000000
  154       11.619352     11.619855   1.000000   1.000000
  155       11.706284     11.706860   1.000000   1.000000
  156       11.738613     11.739176   1.000000   1.000000
  157       11.772027     11.772560   1.000000   1.000000
  158       11.789554     11.790135   1.000000   1.000000
  159       11.868854     11.869323   1.000000   1.000000
  160       11.883726     11.884253   1.000000   1.000000
  161       11.913628     11.914157   1.000000   1.000000
  162       11.953752     11.954271   1.000000   1.000000
  163       11.987115     11.987610   1.000000   1.000000
  164       12.040884     12.041425   1.000000   1.000000
  165       12.081056     12.081512   1.000000   1.000000
  166       12.127202     12.127760   1.000000   1.000000
  167       12.207380     12.207893   1.000000   1.000000
  168       12.268694     12.269127   1.000000   1.000000
  169       12.284433     12.284930   1.000000   1.000000
  170       12.334661     12.335196   1.000000   1.000000
  171       12.434906     12.435370   1.000000   1.000000
  172       12.831505     12.831993   1.000000   1.000000
  173       12.875324     12.875713   1.000000   1.000000
  174       13.015761     13.016251   1.000000   1.000000
  175       13.056552     13.057086   1.000000   1.000000
  176       13.115270     13.115687   1.000000   1.000000
  177       13.190650     13.191129   1.000000   1.000000
  178       13.399968     13.400414   1.000000   1.000000
  179       13.449154     13.449669   1.000000   1.000000
  180       13.729323     13.729819   1.000000   1.000000
  181       13.808158     13.808617   1.000000   1.000000
  182       13.841098     13.841553   1.000000   1.000000
  183       13.879823     13.880344   1.000000   1.000000
  184       13.949197     13.949677   1.000000   1.000000
  185       14.118537     14.119029   1.000000   1.000000
  186       14.124918     14.125403   1.000000   1.000000
  187       14.177690     14.178199   1.000000   1.000000
  188       14.246192     14.246616   1.000000   1.000000
  189       14.265756     14.266224   1.000000   1.000000
  190       14.286152     14.286581   1.000000   1.000000
  191       14.312031     14.312510   1.000000   1.000000
  192       14.355720     14.356239   1.000000   1.000000
  193       14.391388     14.391819   1.000000   1.000000
  194       14.478002     14.478577   1.000000   1.000000
  195       14.532585     14.533040   1.000000   1.000000
  196       14.557514     14.557916   1.000000   1.000000
  197       14.587747     14.588189   0.999980   0.999979
  198       14.641544     14.641976   0.995108   0.994932
  199       14.696312     14.697115   0.849498   0.844131
  200       14.705856     14.706778   0.777668   0.769823
  201       14.743046     14.744961   0.386842   0.366286
  202       14.818001     14.818498   0.008029   0.007725
  203       14.914193     14.914639   0.000000   0.000000
  204       14.933007     14.933457   0.000000   0.000000
  205       14.968767     14.969269   0.000000   0.000000
  206       15.061180     15.061611   0.000000   0.000000
  207       15.069502     15.070021   0.000000   0.000000
  208       15.107308     15.107773   0.000000   0.000000
  209       15.144002     15.144471   0.000000   0.000000
  210       15.231029     15.231482   0.000000   0.000000
  211       15.242848     15.243304   0.000000   0.000000
  212       15.267264     15.267808   0.000000   0.000000
  213       15.285550     15.285956   0.000000   0.000000
  214       15.319258     15.319734   0.000000   0.000000
  215       15.364367     15.364865   0.000000   0.000000
  216       15.424572     15.425009   0.000000   0.000000
  217       15.445298     15.445845   0.000000   0.000000
  218       15.534701     15.535195   0.000000   0.000000
  219       15.554865     15.555312   0.000000   0.000000
  220       15.579237     15.579710   0.000000   0.000000
  221       15.628871     15.629339   0.000000   0.000000
  222       15.678238     15.678714   0.000000   0.000000
  223       15.719975     15.720531   0.000000   0.000000
  224       15.749741     15.750220   0.000000   0.000000
  225       15.771837     15.772341   0.000000   0.000000
  226       15.797923     15.798384   0.000000   0.000000
  227       15.830178     15.830648   0.000000   0.000000
  228       15.913886     15.914390   0.000000   0.000000
  229       15.929524     15.930035   0.000000   0.000000
  230       15.941263     15.941707   0.000000   0.000000
  231       15.974898     15.975383   0.000000   0.000000
  232       16.047687     16.048218   0.000000   0.000000
  233       16.137912     16.138437   0.000000   0.000000
  234       16.169959     16.170407   0.000000   0.000000
  235       16.196897     16.197472   0.000000   0.000000
  236       16.238074     16.238585   0.000000   0.000000
  237       16.267808     16.268358   0.000000   0.000000
  238       16.313592     16.314118   0.000000   0.000000
  239       16.370820     16.371318   0.000000   0.000000
  240       16.416731     16.417241   0.000000   0.000000
  241       16.444341     16.444960   0.000000   0.000000
  242       16.490239     16.490792   0.000000   0.000000
  243       16.542067     16.542523   0.000000   0.000000
  244       16.575366     16.575823   0.000000   0.000000
  245       16.677731     16.678297   0.000000   0.000000
  246       16.733320     16.733867   0.000000   0.000000
  247       16.761039     16.761503   0.000000   0.000000
  248       16.788323     16.788789   0.000000   0.000000
  249       16.925462     16.925921   0.000000   0.000000
  250       16.938189     16.938719   0.000000   0.000000
  251       17.099998     17.100532   0.000000   0.000000
  252       17.960987     17.961498   0.000000   0.000000
  253       18.053013     18.053587   0.000000   0.000000
  254       18.162947     18.163449   0.000000   0.000000
  255       18.211378     18.211844   0.000000   0.000000
  256       18.309019     18.309524   0.000000   0.000000
  257       18.424268     18.424780   0.000000   0.000000
  258       18.626378     18.626851   0.000000   0.000000
  259       18.754730     18.755184   0.000000   0.000000
  260       18.792409     18.792928   0.000000   0.000000
  261       18.820175     18.820725   0.000000   0.000000
  262       18.840926     18.841429   0.000000   0.000000
  263       18.868174     18.868702   0.000000   0.000000
  264       18.909294     18.909818   0.000000   0.000000
  265       18.959163     18.959669   0.000000   0.000000
  266       18.975188     18.975703   0.000000   0.000000
  267       19.020316     19.020824   0.000000   0.000000
  268       19.057697     19.058178   0.000000   0.000000
  269       19.093832     19.094316   0.000000   0.000000
  270       19.105454     19.105966   0.000000   0.000000
  271       19.137552     19.138041   0.000000   0.000000
  272       19.161927     19.162424   0.000000   0.000000
  273       19.209508     19.209966   0.000000   0.000000
  274       19.230942     19.231479   0.000000   0.000000
  275       19.275748     19.276250   0.000000   0.000000
  276       19.332416     19.333012   0.000000   0.000000
  277       19.372022     19.372503   0.000000   0.000000
  278       19.396068     19.396606   0.000000   0.000000
  279       19.412552     19.413050   0.000000   0.000000
  280       19.442713     19.443197   0.000000   0.000000
  281       19.516046     19.516559   0.000000   0.000000
  282       19.527267     19.527840   0.000000   0.000000
  283       19.579781     19.580359   0.000000   0.000000
  284       19.605978     19.606557   0.000000   0.000000
  285       19.628565     19.629047   0.000000   0.000000
  286       19.661887     19.662497   0.000000   0.000000
  287       19.681096     19.681655   0.000000   0.000000
  288       19.716336     19.716829   0.000000   0.000000
  289       19.745358     19.746430   0.000000   0.000000
  290       19.792319     19.793570   0.000000   0.000000
  291       19.823389     19.823982   0.000000   0.000000
  292       19.872317     19.873895   0.000000   0.000000
  293       19.897654     19.899587   0.000000   0.000000
  294       19.934321     19.934174   0.000000   0.000000
  295       19.993832     19.995446   0.000000   0.000000
  296       20.015081     20.015433   0.000000   0.000000
  297       20.078667     20.065646   0.000000   0.000000
  298       20.106895     20.089294   0.000000   0.000000
  299       20.114221     20.112319   0.000000   0.000000
  300       20.148667     20.129482   0.000000   0.000000
  301       20.209701     20.199558   0.000000   0.000000
  302       20.257788     20.255088   0.000000   0.000000
  303       20.316590     20.350165   0.000000   0.000000
  304       20.507375     20.486366   0.000000   0.000000
