       N       E                     dE             d eps       ncg     rms          rms(c)
RMM:   1     0.136147287692E+04    0.13615E+04   -0.74418E+04   608   0.513E+02
RMM:   2    -0.445882684895E+01   -0.13659E+04   -0.13049E+04   608   0.119E+02
RMM:   3    -0.291781614868E+03   -0.28732E+03   -0.27887E+03   608   0.487E+01
RMM:   4    -0.369112937197E+03   -0.77331E+02   -0.65377E+02   608   0.277E+01
RMM:   5    -0.393867866939E+03   -0.24755E+02   -0.20082E+02   608   0.124E+01
RMM:   6    -0.403089687997E+03   -0.92218E+01   -0.69929E+01   608   0.733E+00
RMM:   7    -0.406485054450E+03   -0.33954E+01   -0.27506E+01   608   0.368E+00
RMM:   8    -0.407866283727E+03   -0.13812E+01   -0.11099E+01   608   0.228E+00
RMM:   9    -0.408630638155E+03   -0.76435E+00   -0.69989E+00  1464   0.120E+00
RMM:  10    -0.408723863568E+03   -0.93225E-01   -0.48841E-01  1365   0.225E-01
RMM:  11    -0.408725598629E+03   -0.17351E-02   -0.12314E-02  1288   0.366E-02
RMM:  12    -0.408725612285E+03   -0.13656E-04   -0.13737E-04  1009   0.505E-03    0.596E+01
RMM:  13    -0.415303197667E+03   -0.65776E+01   -0.75116E+00  1350   0.310E+00    0.362E+01
RMM:  14    -0.423707820453E+03   -0.84046E+01   -0.46351E+00  1341   0.272E+00    0.166E+01
RMM:  15    -0.424672574270E+03   -0.96475E+00   -0.74715E-01  1397   0.103E+00    0.372E+00
RMM:  16    -0.424882962149E+03   -0.21039E+00   -0.40042E-01  1395   0.743E-01    0.234E+00
RMM:  17    -0.424981432794E+03   -0.98471E-01   -0.95864E-02  1430   0.312E-01    0.122E+00
RMM:  18    -0.425014759417E+03   -0.33327E-01   -0.29668E-02  1410   0.192E-01    0.542E-01
RMM:  19    -0.425021386676E+03   -0.66273E-02   -0.78355E-03  1423   0.101E-01    0.242E-01
RMM:  20    -0.425023304663E+03   -0.19180E-02   -0.32942E-03  1425   0.681E-02    0.135E-01
RMM:  21    -0.425024065540E+03   -0.76088E-03   -0.11875E-03  1433   0.399E-02    0.882E-02
RMM:  22    -0.425024492178E+03   -0.42664E-03   -0.69737E-04  1410   0.315E-02    0.593E-02
RMM:  23    -0.425024752259E+03   -0.26008E-03   -0.56562E-04  1395   0.289E-02    0.382E-02
RMM:  24    -0.425024877624E+03   -0.12536E-03   -0.38688E-04  1402   0.238E-02    0.206E-02
RMM:  25    -0.425024915013E+03   -0.37389E-04   -0.14926E-04  1433   0.144E-02    0.101E-02
RMM:  26    -0.425024923888E+03   -0.88752E-05   -0.44232E-05  1268   0.770E-03
   1 F= -.42502492E+03 E0= -.42499123E+03  d E =-.673823E-01  mag=     0.0175
