 vasp.5.4.4.18Apr17-6-g9f103f2a35 (build Sep 16 2020 16:20:45) complex          
  
 executed on             LinuxIFC date 2021.08.10  00:47:59
 running on   16 total cores
 distrk:  each k-point on   16 cores,    1 groups
 distr:  one band on NCORES_PER_BAND=   1 cores,   16 groups


--------------------------------------------------------------------------------------------------------


 INCAR:
 POTCAR:    PAW_PBE Si 05Jan2001                  

 ----------------------------------------------------------------------------- 
|                                                                             |
|           W    W    AA    RRRRR   N    N  II  N    N   GGGG   !!!           |
|           W    W   A  A   R    R  NN   N  II  NN   N  G    G  !!!           |
|           W    W  A    A  R    R  N N  N  II  N N  N  G       !!!           |
|           W WW W  AAAAAA  RRRRR   N  N N  II  N  N N  G  GGG   !            |
|           WW  WW  A    A  R   R   N   NN  II  N   NN  G    G                |
|           W    W  A    A  R    R  N    N  II  N    N   GGGG   !!!           |
|                                                                             |
|      For optimal performance we recommend to set                            |
|        NCORE= 4 - approx SQRT( number of cores)                             |
|      NCORE specifies how many cores store one orbital (NPAR=cpu/NCORE).     |
|      This setting can  greatly improve the performance of VASP for DFT.     |
|      The default,   NCORE=1            might be grossly inefficient         |
|      on modern multi-core architectures or massively parallel machines.     |
|      Do your own testing !!!!                                               |
|      Unfortunately you need to use the default for GW and RPA calculations. |
|      (for HF NCORE is supported but not extensively tested yet)             |
|                                                                             |
 ----------------------------------------------------------------------------- 

 POTCAR:    PAW_PBE Si 05Jan2001                  
   SHA256 =  79d9987ad8750f624c4d6acb2a16d13abf6a777132adc04dc6c8399be72b42bb Si
   COPYR  = (c) Copyright 05Jan2001 Georg Kresse                                
   COPYR  = This file is part of the software VASP. Any use, copying, and all ot
   COPYR  = If you do not have a valid VASP license, you may not use, copy or di
   VRHFIN =Si: s2p2                                                             
   LEXCH  = PE                                                                  
   EATOM  =   103.0669 eV,    7.5752 Ry                                         
                                                                                
   TITEL  = PAW_PBE Si 05Jan2001                                                
   LULTRA =        F    use ultrasoft PP ?                                      
   IUNSCR =        1    unscreen: 0-lin 1-nonlin 2-no                           
   RPACOR =    1.500    partial core radius                                     
   POMASS =   28.085; ZVAL   =    4.000    mass and valenz                      
   RCORE  =    1.900    outmost cutoff radius                                   
   RWIGS  =    2.480; RWIGS  =    1.312    wigner-seitz radius (au A)           
   ENMAX  =  245.345; ENMIN  =  184.009 eV                                      
   ICORE  =        2    local potential                                         
   LCOR   =        T    correct aug charges                                     
   LPAW   =        T    paw PP                                                  
   EAUG   =  322.069                                                            
   DEXC   =    0.000                                                            
   RMAX   =    1.950    core radius for proj-oper                               
   RAUG   =    1.300    factor for augmentation sphere                          
   RDEP   =    1.993    radius for radial grids                                 
   RDEPT  =    1.837    core radius for aug-charge                              
                                                                                
   Atomic configuration                                                         
    6 entries                                                                   
     n  l   j            E        occ.                                          
     1  0  0.50     -1785.8828   2.0000                                         
     2  0  0.50      -139.4969   2.0000                                         
     2  1  1.50       -95.5546   6.0000                                         
     3  0  0.50       -10.8127   2.0000                                         
     3  1  0.50        -4.0811   2.0000                                         
     3  2  1.50        -4.0817   0.0000                                         
   Description                                                                  
     l       E           TYP  RCUT    TYP  RCUT                                 
     0    -10.8127223     23  1.900                                             
     0     -7.6451159     23  1.900                                             
     1     -4.0811372     23  1.900                                             
     1      2.4879257     23  1.900                                             
     2     -4.0817478      7  1.900                                             
  local pseudopotential read in
  partial core-charges read in
  partial kinetic energy density read in
  atomic valenz-charges read in
  non local Contribution for L=           0  read in
    real space projection operators read in
  non local Contribution for L=           0  read in
    real space projection operators read in
  non local Contribution for L=           1  read in
    real space projection operators read in
  non local Contribution for L=           1  read in
    real space projection operators read in
    PAW grid and wavefunctions read in
 
   number of l-projection  operators is LMAX  =           4
   number of lm-projection operators is LMMAX =           8
 
 Optimization of the real space projectors (new method)

 maximal supplied QI-value         = 19.84
 optimisation between [QCUT,QGAM] = [  7.94, 15.87] = [ 17.64, 70.56] Ry 
 Optimized for a Real-space Cutoff    1.57 Angstroem

   l    n(q)    QCUT    max X(q) W(low)/X(q) W(high)/X(q)  e(spline) 
   0      7     7.937   159.560    0.16E-03    0.38E-03    0.13E-06
   0      7     7.937   115.863    0.15E-03    0.37E-03    0.13E-06
   1      7     7.937    88.339    0.42E-03    0.67E-03    0.13E-06
   1      7     7.937    48.592    0.41E-03    0.65E-03    0.13E-06
  PAW_PBE Si 05Jan2001                  :
 energy of atom  1       EATOM= -103.0669
 kinetic energy error for atom=    0.0056 (will be added to EATOM!!)
 
 
 POSCAR: Si                                      
  positions in cartesian coordinates
  No initial velocities read in
 exchange correlation table for  LEXCH =        8
   RHO(1)=    0.500       N(1)  =     2000
   RHO(2)=  100.500       N(2)  =     4000
 


--------------------------------------------------------------------------------------------------------


 ion  position               nearest neighbor table
   1  0.058  0.214  0.053-  99 2.30  41 2.31  93 2.33  40 2.34  85 2.42  53 2.45  68 2.45  31 2.56
                            97 2.56  54 2.62   8 2.68   9 2.79  81 2.81
   2  0.174  0.693  0.504-  42 2.27  83 2.28  37 2.30  17 2.37  52 2.38  92 2.40  94 2.46  47 2.49
                            33 2.64  58 2.66  45 2.79  59 3.09
   3  0.601  0.791  0.922-  44 2.24  32 2.27  22 2.31  39 2.33  15 2.37  18 2.40  25 2.42  30 2.45
                            26 2.46  14 2.62  63 3.00  28 3.14
   4  0.253  0.425  0.304-  93 2.18  52 2.25  99 2.27  49 2.28  12 2.34 100 2.35  37 2.39   5 2.39
                            45 2.41  76 2.54  58 2.66
   5  0.152  0.225  0.372-  56 2.19  40 2.21  50 2.32   4 2.39  93 2.44  68 2.45  96 2.54  99 2.66
                            12 2.69  89 2.72  59 2.76  37 2.86  76 2.87  64 3.02  71 3.12
   6  0.606  0.296  0.210-  57 2.34  80 2.36   9 2.40  72 2.40  75 2.41  46 2.43  49 2.48  12 2.49
                            74 2.49  20 2.54  95 2.57   7 2.67
   7  0.556  0.410  0.440-  12 2.26  36 2.30  98 2.34  91 2.34  95 2.35  84 2.40  76 2.49  49 2.59
                            87 2.62   6 2.67  52 2.69  74 2.95
   8  0.873  0.333  0.910-  55 2.22   9 2.27  97 2.45  79 2.46  41 2.47  24 2.56  57 2.57  53 2.58
                            38 2.63   1 2.68  61 2.75  19 2.96  35 3.06
   9  0.823  0.332  0.127-  68 2.27   8 2.27  57 2.36  19 2.36  72 2.38   6 2.40  75 2.52  95 2.56
                            99 2.62   1 2.79  97 2.85  74 3.03  61 3.04
  10  0.881  0.556  0.536-  91 2.21  83 2.24  60 2.37  38 2.42  43 2.51  79 2.54  58 2.55  95 2.56
                            50 2.60  92 2.61  11 2.63  87 2.65  37 2.82
  11  0.826  0.632  0.295-  95 2.24  58 2.26  19 2.29  92 2.33  98 2.37  72 2.42  21 2.43  43 2.46
                            26 2.47  86 2.62  10 2.63
  12  0.412  0.267  0.354-  76 2.23   7 2.26   4 2.34  96 2.35  20 2.41   6 2.49  46 2.51  84 2.54
                            89 2.55  93 2.56  49 2.63   5 2.69
  13  0.722  0.004  0.469-  23 2.23  77 2.24  74 2.24  20 2.38  86 2.45  69 2.46  71 2.50  34 2.54
                            43 2.55  84 2.61  64 2.66  25 3.00
  14  0.576  0.940  0.129-  26 2.29  75 2.42  34 2.44  18 2.44  20 2.47  32 2.48  65 2.48  46 2.49
                            15 2.61   3 2.62  86 2.64  70 2.91
  15  0.796  0.860  0.028-  26 2.21  44 2.27  21 2.35   3 2.37  28 2.45  31 2.47  86 2.48  18 2.50
                            62 2.60  97 2.61  14 2.61  75 2.98
  16  0.139  0.879  0.066-  85 2.22  21 2.31  65 2.31  73 2.39  54 2.42  31 2.43  33 2.43  88 2.49
                            67 2.49  40 2.53  62 2.53  45 3.03  32 3.14
  17  0.066  0.823  0.663-  83 2.17  23 2.23  67 2.31  82 2.32   2 2.37  59 2.46  62 2.46  94 2.47
                            60 2.54  92 2.79  28 2.86  48 3.13
  18  0.649  0.021  0.917-  97 2.27  29 2.33  57 2.33   3 2.40  14 2.44  77 2.46  15 2.50  28 2.52
                            63 2.55  32 2.61  75 2.94  55 2.98  25 3.02  35 3.08
  19  0.904  0.547  0.103-  11 2.29  88 2.30   9 2.36  44 2.39  72 2.39  99 2.46  21 2.48  24 2.53
                            58 2.70  41 2.86   8 2.96  95 3.13  26 3.14
  20  0.555  0.081  0.325-  46 2.28  96 2.34  69 2.37  13 2.38  12 2.41  75 2.43  74 2.43  84 2.45
                            14 2.47  34 2.50   6 2.54  86 3.15
  21  0.963  0.775  0.163-  16 2.31  88 2.33  15 2.35  31 2.36  86 2.39  11 2.43  19 2.48  33 2.51
                            92 2.57  62 2.81  58 2.92  45 2.94  26 3.07  64 3.12
  22  0.589  0.619  0.776-  30 2.28  36 2.29   3 2.31  61 2.33  91 2.34  79 2.36  25 2.38  44 2.57
                            66 2.61  27 2.63  39 2.75  60 2.91  42 3.09
  23  0.886  0.916  0.581-  13 2.23  17 2.23  82 2.28  28 2.32  43 2.40  64 2.41  71 2.41  92 2.46
                            60 2.52  77 2.70  25 2.82  59 2.85
  24  0.959  0.564  0.862-  79 2.24  83 2.24  62 2.27  44 2.28  41 2.29  60 2.41  88 2.47  48 2.49
                            19 2.53   8 2.56  38 2.73
  25  0.651  0.827  0.693-  77 2.27  27 2.35  22 2.38  60 2.38   3 2.42  43 2.44  28 2.57  63 2.58
                            23 2.82  69 2.85  30 2.87  91 2.97  13 3.00  18 3.02
  26  0.665  0.736  0.147-  15 2.21  72 2.28  14 2.29  86 2.32  39 2.34  34 2.42   3 2.46  11 2.47
                            44 2.49  70 2.49  98 2.54  21 3.07  19 3.14
  27  0.499  0.720  0.557-  91 2.34  25 2.35  47 2.38  42 2.41  52 2.48  98 2.52  94 2.54  69 2.60
                            34 2.62  22 2.63  30 2.64  43 2.64  36 2.93
  28  0.851  0.930  0.806-  62 2.28  23 2.32  82 2.38  97 2.42  15 2.45  60 2.48  77 2.49  85 2.52
                            18 2.52  25 2.57  55 2.67  17 2.86   3 3.14
  29  0.461  0.150  0.907-  81 2.28  78 2.29  63 2.29  18 2.33  57 2.37  54 2.39  80 2.43  46 2.44
                            32 2.47  35 2.58  90 2.69
  30  0.404  0.742  0.796-  22 2.28  42 2.33  94 2.33  32 2.34  67 2.36   3 2.45  48 2.54  73 2.57
                            63 2.62  27 2.64  66 2.75  25 2.87  39 2.93
  31  0.953  0.005  0.142-  40 2.27  97 2.28  68 2.33  21 2.36  64 2.37  75 2.42  16 2.43  85 2.44
                            15 2.47  86 2.48   1 2.56  33 3.02
  32  0.419  0.915  0.946-  63 2.17   3 2.27  54 2.31  30 2.34  65 2.43  73 2.44  29 2.47  14 2.48
                            67 2.48  18 2.61  90 3.05  46 3.08  16 3.14
  33  0.149  0.855  0.303-  45 2.31  92 2.35  47 2.37  16 2.43  65 2.44  40 2.46  64 2.49  21 2.51
                            59 2.58   2 2.64  96 2.77  31 3.02
  34  0.583  0.838  0.345-  86 2.25  98 2.26  70 2.33  43 2.35  47 2.39  26 2.42  14 2.44  69 2.44
                            20 2.50  13 2.54  27 2.62
  35  0.621  0.276  0.758-  78 2.29  55 2.32  87 2.35  36 2.40  84 2.48  57 2.49  77 2.53  29 2.58
                            61 2.61  79 2.76   8 3.06  18 3.08
  36  0.503  0.451  0.655-  91 2.22  78 2.26  22 2.29   7 2.30  76 2.30  35 2.40  42 2.41  66 2.41
                            27 2.93  84 2.95  87 2.96  79 3.05
  37  0.142  0.471  0.505-  76 2.25  58 2.25   2 2.30  50 2.37  83 2.39   4 2.39  51 2.51  56 2.55
                            42 2.62  52 2.66  38 2.71  10 2.82   5 2.86
  38  0.956  0.378  0.670-  87 2.28  79 2.31  56 2.34  10 2.42  53 2.47  50 2.47  55 2.50  83 2.56
                            51 2.62   8 2.63  37 2.71  24 2.73  71 2.75
  39  0.507  0.616  0.033-  73 2.30  61 2.31  70 2.32   3 2.33  26 2.34  72 2.39  49 2.42  66 2.53
                            80 2.73  22 2.75 100 2.85  44 2.89  30 2.93
  40  0.151  0.078  0.213-   5 2.21  93 2.26  31 2.27  96 2.33   1 2.34  54 2.42  33 2.46  16 2.53
                            65 2.53  68 2.53  64 2.65  46 3.09
  41  0.098  0.413  0.952- 100 2.29  24 2.29  53 2.31   1 2.31  81 2.34   8 2.47  99 2.49  88 2.49
                            51 2.49  48 2.53  19 2.86  93 3.04
  42  0.318  0.596  0.643-   2 2.27  30 2.33  52 2.38  48 2.39  27 2.41  36 2.41  51 2.48  76 2.61
                            66 2.62  37 2.62  94 2.67  83 2.78  22 3.09
  43  0.745  0.755  0.485-  91 2.27  34 2.35  98 2.40  23 2.40  92 2.40  25 2.44  11 2.46  10 2.51
                            13 2.55  60 2.57  86 2.59  27 2.64
  44  0.773  0.656  0.944-   3 2.24  15 2.27  24 2.28  19 2.39  61 2.43  26 2.49  79 2.55  22 2.57
                            60 2.58  62 2.67  72 2.77  39 2.89
  45  0.209  0.646  0.237-  88 2.27  58 2.28  33 2.31  70 2.40   4 2.41 100 2.44  52 2.46  73 2.48
                             2 2.79  47 2.86  21 2.94  49 2.98  16 3.03  99 3.04
  46  0.439  0.141  0.144-  20 2.28  93 2.30  54 2.39   6 2.43  29 2.44  80 2.46  14 2.49  65 2.50
                            12 2.51  96 2.57  57 2.88  32 3.08  40 3.09  75 3.12
  47  0.356  0.820  0.402-  70 2.25  33 2.37  69 2.38  27 2.38  34 2.39  94 2.39  52 2.43  96 2.44
                             2 2.49  65 2.60  45 2.86  59 3.02
  48  0.197  0.612  0.843-  88 2.28  83 2.36  66 2.39  42 2.39  51 2.43  73 2.46  24 2.49  41 2.53
                            30 2.54  67 2.56  62 2.74 100 2.89  17 3.13
  49  0.452  0.484  0.221-   4 2.28  70 2.34 100 2.35  80 2.36  52 2.41  39 2.42  72 2.43   6 2.48
                            98 2.50   7 2.59  12 2.63  45 2.98  93 3.07
  50  0.965  0.340  0.431-  68 2.26   5 2.32  71 2.32  95 2.36  37 2.37  56 2.41  38 2.47  58 2.52
                            10 2.60  87 2.62  74 2.64  99 2.69
  51  0.204  0.401  0.733-  53 2.27  81 2.35  78 2.40  48 2.43  66 2.44  56 2.46  76 2.47  42 2.48
                            41 2.49  37 2.51  38 2.62  83 2.76
  52  0.359  0.582  0.415-   4 2.25  42 2.38   2 2.38  49 2.41  47 2.43  45 2.46  70 2.46  27 2.48
                            76 2.52  98 2.58  37 2.66   7 2.69
  53  0.085  0.233  0.815-  51 2.27  41 2.31  82 2.34  81 2.35  90 2.36  56 2.38   1 2.45  38 2.47
                            85 2.50   8 2.58  55 2.73  54 3.14
  54  0.264  0.070  0.005-  32 2.31  65 2.38  29 2.39  46 2.39  85 2.41  81 2.41  16 2.42  40 2.42
                            90 2.48  93 2.56   1 2.62  67 2.80  53 3.14
  55  0.830  0.186  0.756-   8 2.22  77 2.23  35 2.32  97 2.35  71 2.39  87 2.45  38 2.50  82 2.54
                            28 2.67  53 2.73  18 2.98  57 3.05
  56  0.113  0.236  0.583-   5 2.19  38 2.34  71 2.34  53 2.38  50 2.41  89 2.44  51 2.46  82 2.48
                            37 2.55  59 2.59  76 2.68  90 2.80
  57  0.658  0.236  0.995-  80 2.29  18 2.33   6 2.34   9 2.36  29 2.37  61 2.39  97 2.40  75 2.44
                            35 2.49   8 2.57  46 2.88  55 3.05
  58  0.030  0.557  0.335-  37 2.25  11 2.26  99 2.27  45 2.28  92 2.35  50 2.52  10 2.55   2 2.66
                             4 2.66  19 2.70  21 2.92  95 2.98
  59  0.145  0.994  0.514-  82 2.33  64 2.34  89 2.41  94 2.42  17 2.46  96 2.56  33 2.58  56 2.59
                             5 2.76  23 2.85  90 2.90  71 2.91  47 3.02   2 3.09  92 3.13
  60  0.850  0.708  0.709-  83 2.28  79 2.35  10 2.37  25 2.38  24 2.41  28 2.48  62 2.48  23 2.52
                            17 2.54  43 2.57  44 2.58  91 2.78  22 2.91
  61  0.638  0.461  0.933-  80 2.28  39 2.31  22 2.33  72 2.36  79 2.36  57 2.39  44 2.43  35 2.61
                            66 2.64   8 2.75   9 3.04
  62  0.995  0.782  0.890-  24 2.27  28 2.28  88 2.40  67 2.41  17 2.46  85 2.47  60 2.48  16 2.53
                            15 2.60  44 2.67  48 2.74  21 2.81  83 2.92
  63  0.465  0.988  0.751-  32 2.17  29 2.29  90 2.38  77 2.38  69 2.39  94 2.48  18 2.55  25 2.58
                            30 2.62  89 2.90  78 2.97   3 3.00  67 3.02
  64  0.964  0.996  0.374-  59 2.34  71 2.36  31 2.37  68 2.39  86 2.40  23 2.41  92 2.41  33 2.49
                            40 2.65  13 2.66   5 3.02  74 3.04  21 3.12
  65  0.336  0.920  0.169-  16 2.31  96 2.31  54 2.38  70 2.42  32 2.43  33 2.44  14 2.48  46 2.50
                            73 2.51  40 2.53  47 2.60
  66  0.390  0.481  0.861-  81 2.32  80 2.34  48 2.39  36 2.41  51 2.44  39 2.53  78 2.55 100 2.56
                            22 2.61  42 2.62  61 2.64  30 2.75  73 3.10
  67  0.210  0.862  0.834-  17 2.31  94 2.32  30 2.36  90 2.39  62 2.41  85 2.45  32 2.48  16 2.49
                            48 2.56  73 2.64  54 2.80  82 2.96  63 3.02
  68  0.940  0.200  0.261-  50 2.26   9 2.27  74 2.31  31 2.33  64 2.39  75 2.42  99 2.43   5 2.45
                             1 2.45  40 2.53  71 2.90  95 3.07
  69  0.488  0.972  0.519-  20 2.37  89 2.37  47 2.38  63 2.39  84 2.42  34 2.44  13 2.46  96 2.48
                            94 2.49  27 2.60  77 2.65  25 2.85
  70  0.435  0.712  0.226-  47 2.25  39 2.32  34 2.33  49 2.34  98 2.38  45 2.40  73 2.41  65 2.42
                            52 2.46  26 2.49  14 2.91
  71  0.907  0.148  0.538-  74 2.32  50 2.32  82 2.33  56 2.34  64 2.36  55 2.39  23 2.41  87 2.47
                            13 2.50  38 2.75  68 2.90  59 2.91  77 2.92   5 3.12
  72  0.678  0.513  0.154-  26 2.28  61 2.36  95 2.38   9 2.38  19 2.39  39 2.39   6 2.40  11 2.42
                            49 2.43  98 2.47  44 2.77  80 2.97
  73  0.307  0.721  0.028-  88 2.27  39 2.30  16 2.39  70 2.41  32 2.44  48 2.46  45 2.48  65 2.51
                            30 2.57 100 2.58  67 2.64  66 3.10
  74  0.750  0.204  0.384-  13 2.24  68 2.31  71 2.32  95 2.33  75 2.34  87 2.40  20 2.43  84 2.44
                             6 2.49  50 2.64   7 2.95   9 3.03  64 3.04
  75  0.740  0.104  0.178-  74 2.34  97 2.41   6 2.41  14 2.42  31 2.42  68 2.42  20 2.43  57 2.44
                            86 2.48   9 2.52  18 2.94  15 2.98  46 3.12
  76  0.334  0.367  0.532-  12 2.23  37 2.25  36 2.30  78 2.33  89 2.35  51 2.47   7 2.49  52 2.52
                             4 2.54  42 2.61  56 2.68   5 2.87  84 2.94
  77  0.679  0.047  0.679-  55 2.23  13 2.24  25 2.27  63 2.38  84 2.40  18 2.46  28 2.49  35 2.53
                            69 2.65  23 2.70  71 2.92
  78  0.399  0.270  0.728-  81 2.25  36 2.26  35 2.29  29 2.29  76 2.33  89 2.36  51 2.40  90 2.47
                            66 2.55  84 2.71  63 2.97
  79  0.781  0.493  0.755-  24 2.24  38 2.31  60 2.35  91 2.35  61 2.36  22 2.36  87 2.43   8 2.46
                            10 2.54  44 2.55  35 2.76  36 3.05  83 3.10
  80  0.470  0.352  0.032-  61 2.28  57 2.29  81 2.32  66 2.34  49 2.36   6 2.36  29 2.43 100 2.46
                            46 2.46  93 2.71  39 2.73  72 2.97
  81  0.285  0.287  0.916-  78 2.25  29 2.28  66 2.32  80 2.32  41 2.34  53 2.35  51 2.35  54 2.41
                            93 2.52 100 2.57  90 2.65   1 2.81
  82  0.026  0.043  0.702-  23 2.28  85 2.30  17 2.32  71 2.33  59 2.33  53 2.34  28 2.38  90 2.42
                            56 2.48  55 2.54  67 2.96
  83  0.047  0.611  0.667-  17 2.17  10 2.24  24 2.24   2 2.28  60 2.28  48 2.36  37 2.39  38 2.56
                            51 2.76  42 2.78  62 2.92  79 3.10  92 3.13
  84  0.566  0.196  0.535-   7 2.40  77 2.40  69 2.42  74 2.44  87 2.45  20 2.45  35 2.48  89 2.50
                            12 2.54  13 2.61  78 2.71  76 2.94  36 2.95
  85  0.049  0.016  0.924-  16 2.22  97 2.27  82 2.30  54 2.41   1 2.42  31 2.44  67 2.45  62 2.47
                            53 2.50  28 2.52  90 2.72
  86  0.785  0.884  0.270-  34 2.25  26 2.32  21 2.39  64 2.40  13 2.45  31 2.48  75 2.48  15 2.48
                            43 2.59  11 2.62  14 2.64  92 2.68  20 3.15
  87  0.757  0.333  0.581-  38 2.28  35 2.35  74 2.40  79 2.43  84 2.45  55 2.45  71 2.47  95 2.54
                            91 2.54  50 2.62   7 2.62  10 2.65  36 2.96
  88  0.101  0.639  0.043-  73 2.27  45 2.27  48 2.28  19 2.30  21 2.33  62 2.40 100 2.43  24 2.47
                            16 2.49  41 2.49  99 2.98
  89  0.329  0.138  0.551-  96 2.21  76 2.35  78 2.36  90 2.37  69 2.37  59 2.41  56 2.44  84 2.50
                            12 2.55   5 2.72  63 2.90  94 2.98
  90  0.252  0.081  0.762-  53 2.36  89 2.37  63 2.38  67 2.39  82 2.42  78 2.47  54 2.48  81 2.65
                            29 2.69  85 2.72  94 2.73  56 2.80  59 2.90  32 3.05
  91  0.667  0.565  0.568-  10 2.21  36 2.22  43 2.27  98 2.30   7 2.34  22 2.34  27 2.34  79 2.35
                            87 2.54  60 2.78  95 2.81  25 2.97
  92  0.969  0.764  0.414-  11 2.33  58 2.35  33 2.35  43 2.40   2 2.40  64 2.41  23 2.46  21 2.57
                            10 2.61  86 2.68  17 2.79  83 3.13  59 3.13
  93  0.253  0.267  0.160-   4 2.18  40 2.26 100 2.29  46 2.30  99 2.33   1 2.33   5 2.44  81 2.52
                            12 2.56  54 2.56  80 2.71  41 3.04  96 3.05  49 3.07
  94  0.303  0.857  0.626-  67 2.32  30 2.33  47 2.39  59 2.42   2 2.46  17 2.47  63 2.48  69 2.49
                            27 2.54  42 2.67  90 2.73  89 2.98
  95  0.768  0.429  0.351-  11 2.24  74 2.33   7 2.35  50 2.36  72 2.38  87 2.54  10 2.56   9 2.56
                            98 2.57   6 2.57  91 2.81  58 2.98  68 3.07  19 3.13
  96  0.329  0.052  0.353-  89 2.21  65 2.31  40 2.33  20 2.34  12 2.35  47 2.44  69 2.48   5 2.54
                            59 2.56  46 2.57  33 2.77  93 3.05
  97  0.850  0.102  0.969-  18 2.27  85 2.27  31 2.28  55 2.35  57 2.40  75 2.41  28 2.42   8 2.45
                             1 2.56  15 2.61   9 2.85
  98  0.603  0.618  0.358-  34 2.26  91 2.30   7 2.34  11 2.37  70 2.38  43 2.40  72 2.47  49 2.50
                            27 2.52  26 2.54  95 2.57  52 2.58
  99  0.064  0.390  0.192-   4 2.27  58 2.27   1 2.30  93 2.33  68 2.43  19 2.46  41 2.49 100 2.55
                             9 2.62   5 2.66  50 2.69  88 2.98  45 3.04
 100  0.270  0.477  0.081-  41 2.29  93 2.29  49 2.35   4 2.35  88 2.43  45 2.44  80 2.46  99 2.55
                            66 2.56  81 2.57  73 2.58  39 2.85  48 2.89
 

IMPORTANT INFORMATION: All symmetrisations will be switched off!
NOSYMM: (Re-)initialisation of all symmetry stuff for point group C_1.

 
 
 KPOINTS: simple                                  

Automatic generation of k-mesh.
Space group operators:
 irot       det(A)        alpha          n_x          n_y          n_z        tau_x        tau_y        tau_z
    1     1.000000     0.000000     1.000000     0.000000     0.000000     0.000000     0.000000     0.000000
 
 Subroutine IBZKPT returns following result:
 ===========================================
 
 Found      1 irreducible k-points:
 
 Following reciprocal coordinates:
            Coordinates               Weight
  0.000000  0.000000  0.000000      1.000000
 
 Following cartesian coordinates:
            Coordinates               Weight
  0.000000  0.000000  0.000000      1.000000
 


--------------------------------------------------------------------------------------------------------




 Dimension of arrays:
   k-points           NKPTS =      1   k-points in BZ     NKDIM =      1   number of bands    NBANDS=    304
   number of dos      NEDOS =    301   number of ions     NIONS =    100
   non local maximal  LDIM  =      4   non local SUM 2l+1 LMDIM =      8
   total plane-waves  NPLWV =  64000
   max r-space proj   IRMAX =   1017   max aug-charges    IRDMAX=   2209
   dimension x,y,z NGX =    40 NGY =   40 NGZ =   40
   dimension x,y,z NGXF=    80 NGYF=   80 NGZF=   80
   support grid    NGXF=    80 NGYF=   80 NGZF=   80
   ions per type =             100
   NGX,Y,Z   is equivalent  to a cutoff of   6.51,  6.51,  6.51 a.u.
   NGXF,Y,Z  is equivalent  to a cutoff of  13.02, 13.02, 13.02 a.u.

 SYSTEM =  unknown system                          
 POSCAR =  Si                                      

 Startparameter for this run:
   NWRITE =      2    write-flag & timer
   PREC   = normal    normal or accurate (medium, high low for compatibility)
   ISTART =      0    job   : 0-new  1-cont  2-samecut
   ICHARG =      2    charge: 1-file 2-atom 10-const
   ISPIN  =      2    spin polarized calculation?
   LNONCOLLINEAR =      F non collinear calculations
   LSORBIT =      F    spin-orbit coupling
   INIWAV =      1    electr: 0-lowe 1-rand  2-diag
   LASPH  =      F    aspherical Exc in radial PAW
   METAGGA=      F    non-selfconsistent MetaGGA calc.

 Electronic Relaxation 1
   ENCUT  =  245.3 eV  18.03 Ry    4.25 a.u.  13.04 13.04 13.04*2*pi/ulx,y,z
   ENINI  =  245.3     initial cutoff
   ENAUG  =  322.1 eV  augmentation charge cutoff
   NELM   =     60;   NELMIN=  4; NELMDL=-12     # of ELM steps 
   EDIFF  = 0.1E-04   stopping-criterion for ELM
   LREAL  =      T    real-space projection
   NLSPLINE    = F    spline interpolate recip. space projectors
   LCOMPAT=      F    compatible to vasp.4.4
   GGA_COMPAT  = T    GGA compatible to vasp.4.4-vasp.4.6
   LMAXPAW     = -100 max onsite density
   LMAXMIX     =    2 max onsite mixed and CHGCAR
   VOSKOWN=      0    Vosko Wilk Nusair interpolation
   ROPT   =   -0.00050
 Ionic relaxation
   EDIFFG = 0.1E-03   stopping-criterion for IOM
   NSW    =      0    number of steps for IOM
   NBLOCK =      1;   KBLOCK =      1    inner block; outer block 
   IBRION =     -1    ionic relax: 0-MD 1-quasi-New 2-CG
   NFREE  =      0    steps in history (QN), initial steepest desc. (CG)
   ISIF   =      2    stress and relaxation
   IWAVPR =     10    prediction:  0-non 1-charg 2-wave 3-comb
   ISYM   =      0    0-nonsym 1-usesym 2-fastsym
   LCORR  =      T    Harris-Foulkes like correction to forces

   POTIM  = 0.5000    time-step for ionic-motion
   TEIN   =    0.0    initial temperature
   TEBEG  =    0.0;   TEEND  =   0.0 temperature during run
   SMASS  =  -3.00    Nose mass-parameter (am)
   estimated Nose-frequenzy (Omega)   =  0.10E-29 period in steps =****** mass=  -0.238E-26a.u.
   SCALEE = 1.0000    scale energy and forces
   NPACO  =    256;   APACO  = 16.0  distance and # of slots for P.C.
   PSTRESS=    0.0 pullay stress

  Mass of Ions in am
   POMASS =  28.09
  Ionic Valenz
   ZVAL   =   4.00
  Atomic Wigner-Seitz radii
   RWIGS  =  -1.00
  virtual crystal weights 
   VCA    =   1.00
   NELECT =     400.0000    total number of electrons
   NUPDOWN=      -1.0000    fix difference up-down

 DOS related values:
   EMIN   =  10.00;   EMAX   =-10.00  energy-range for DOS
   EFERMI =   0.00
   ISMEAR =     0;   SIGMA  =   0.05  broadening in eV -4-tet -1-fermi 0-gaus

 Electronic relaxation 2 (details)
   IALGO  =     48    algorithm
   LDIAG  =      T    sub-space diagonalisation (order eigenvalues)
   LSUBROT=      F    optimize rotation matrix (better conditioning)
   TURBO    =      0    0=normal 1=particle mesh
   IRESTART =      0    0=no restart 2=restart with 2 vectors
   NREBOOT  =      0    no. of reboots
   NMIN     =      0    reboot dimension
   EREF     =   0.00    reference energy to select bands
   IMIX   =      4    mixing-type and parameters
     AMIX     =   0.40;   BMIX     =  1.00
     AMIX_MAG =   1.60;   BMIX_MAG =  1.00
     AMIN     =   0.10
     WC   =   100.;   INIMIX=   1;  MIXPRE=   1;  MAXMIX= -45

 Intra band minimization:
   WEIMIN = 0.0000     energy-eigenvalue tresh-hold
   EBREAK =  0.82E-08  absolut break condition
   DEPER  =   0.30     relativ break condition  

   TIME   =   0.40     timestep for ELM

  volume/ion in A,a.u.               =      10.65        71.86
  Fermi-wavevector in a.u.,A,eV,Ry     =   1.181242  2.232223 18.984649  1.395332
  Thomas-Fermi vector in A             =   2.317519
 
 Write flags
   LWAVE        =      F    write WAVECAR
   LDOWNSAMPLE  =      F    k-point downsampling of WAVECAR
   LCHARG       =      F    write CHGCAR
   LVTOT        =      F    write LOCPOT, total local potential
   LVHAR        =      F    write LOCPOT, Hartree potential only
   LELF         =      F    write electronic localiz. function (ELF)
   LORBIT       =      0    0 simple, 1 ext, 2 COOP (PROOUT), +10 PAW based schemes


 Dipole corrections
   LMONO  =      F    monopole corrections only (constant potential shift)
   LDIPOL =      F    correct potential (dipole corrections)
   IDIPOL =      0    1-x, 2-y, 3-z, 4-all directions 
   EPSILON=  1.0000000 bulk dielectric constant

 Exchange correlation treatment:
   GGA     =    --    GGA type
   LEXCH   =     8    internal setting for exchange type
   VOSKOWN=      0    Vosko Wilk Nusair interpolation
   LHFCALC =     F    Hartree Fock is set to
   LHFONE  =     F    Hartree Fock one center treatment
   AEXX    =    0.0000 exact exchange contribution

 Linear response parameters
   LEPSILON=     F    determine dielectric tensor
   LRPA    =     F    only Hartree local field effects (RPA)
   LNABLA  =     F    use nabla operator in PAW spheres
   LVEL    =     F    velocity operator in full k-point grid
   LINTERFAST=   F  fast interpolation
   KINTER  =     0    interpolate to denser k-point grid
   CSHIFT  =0.1000    complex shift for real part using Kramers Kronig
   OMEGAMAX=  -1.0    maximum frequency
   DEG_THRESHOLD= 0.2000000E-02 threshold for treating states as degnerate
   RTIME   =   -0.100 relaxation time in fs
  (WPLASMAI=    0.000 imaginary part of plasma frequency in eV, 0.658/RTIME)
   DFIELD  = 0.0000000 0.0000000 0.0000000 field for delta impulse in time
 
 Orbital magnetization related:
   ORBITALMAG=     F  switch on orbital magnetization
   LCHIMAG   =     F  perturbation theory with respect to B field
   DQ        =  0.001000  dq finite difference perturbation B field
   LLRAUG    =     F  two centre corrections for induced B field



--------------------------------------------------------------------------------------------------------


 Static calculation
 charge density and potential will be updated during run
 spin polarized calculation
 RMM-DIIS sequential band-by-band
 perform sub-space diagonalisation
    before iterative eigenvector-optimisation
 modified Broyden-mixing scheme, WC =      100.0
 initial mixing is a Kerker type mixing with AMIX =  0.4000 and BMIX =      1.0000
 Hartree-type preconditioning will be used
 using additional bands          104
 real space projection scheme for non local part
 use partial core corrections
 calculate Harris-corrections to forces 
   (improved forces if not selfconsistent)
 use gradient corrections 
 use of overlap-Matrix (Vanderbilt PP)
 Gauss-broadening in eV      SIGMA  =   0.05


--------------------------------------------------------------------------------------------------------


  energy-cutoff  :      245.34
  volume of cell :     1064.80
      direct lattice vectors                 reciprocal lattice vectors
    10.211495000  0.000000000  0.000000000     0.097928854  0.000000000  0.000000000
     0.000000000 10.211495000  0.000000000     0.000000000  0.097928854  0.000000000
     0.000000000  0.000000000 10.211495000     0.000000000  0.000000000  0.097928854

  length of vectors
    10.211495000 10.211495000 10.211495000     0.097928854  0.097928854  0.097928854


 
 k-points in units of 2pi/SCALE and weight: simple                                  
   0.00000000  0.00000000  0.00000000       1.000
 
 k-points in reciprocal lattice and weights: simple                                  
   0.00000000  0.00000000  0.00000000       1.000
 
 position of ions in fractional coordinates (direct lattice) 
   0.05830000  0.21383200  0.05287360
   0.17441900  0.69339400  0.50406200
   0.60145900  0.79139700  0.92197900
   0.25266300  0.42468100  0.30417800
   0.15169100  0.22454100  0.37226600
   0.60634200  0.29625300  0.21046300
   0.55636500  0.40997500  0.44039600
   0.87323500  0.33336200  0.90970000
   0.82260100  0.33164300  0.12653000
   0.88082600  0.55646300  0.53550500
   0.82610400  0.63242900  0.29511100
   0.41156300  0.26653800  0.35382500
   0.72154700  0.00360000  0.46866700
   0.57562000  0.94041980  0.12946700
   0.79610400  0.85987600  0.02820570
   0.13885700  0.87858000  0.06634520
   0.06600480  0.82299800  0.66324700
   0.64948500  0.02134010  0.91666900
   0.90403800  0.54698900  0.10346500
   0.55476600  0.08098950  0.32482600
   0.96252900  0.77531700  0.16319900
   0.58856500  0.61891400  0.77635000
   0.88639100  0.91638300  0.58148400
   0.95856400  0.56431200  0.86224300
   0.65065300  0.82709700  0.69314900
   0.66463700  0.73558700  0.14744700
   0.49902900  0.72028400  0.55737100
   0.85053900  0.93019900  0.80574900
   0.46122900  0.14983600  0.90662500
   0.40351500  0.74230700  0.79620700
   0.95263400  0.00533000  0.14218500
   0.41902300  0.91530200  0.94581000
   0.14914500  0.85463500  0.30298600
   0.58278600  0.83825000  0.34509600
   0.62116000  0.27567700  0.75765800
   0.50313400  0.45087900  0.65523500
   0.14167800  0.47098500  0.50512500
   0.95634100  0.37754400  0.67047800
   0.50666400  0.61635300  0.03273000
   0.15060800  0.07793830  0.21255200
   0.09773240  0.41283700  0.95192900
   0.31801100  0.59636800  0.64346600
   0.74483700  0.75548500  0.48535600
   0.77263400  0.65593800  0.94397000
   0.20937200  0.64645100  0.23720200
   0.43857600  0.14128100  0.14448800
   0.35644600  0.81973600  0.40160900
   0.19665000  0.61197600  0.84348100
   0.45160000  0.48376700  0.22113600
   0.96546300  0.33961600  0.43148400
   0.20432600  0.40142100  0.73265900
   0.35910800  0.58237500  0.41461800
   0.08536540  0.23281900  0.81523500
   0.26437500  0.06951500  0.00507000
   0.82952400  0.18573300  0.75556900
   0.11341000  0.23574000  0.58344400
   0.65800700  0.23589200  0.99508840
   0.03002660  0.55711500  0.33541900
   0.14529700  0.99419346  0.51378900
   0.85038300  0.70765700  0.70907200
   0.63758200  0.46067600  0.93276500
   0.99464300  0.78236100  0.88970000
   0.46478900  0.98776400  0.75127500
   0.96359400  0.99637100  0.37368100
   0.33640000  0.91987700  0.16890600
   0.39014800  0.48140500  0.86068600
   0.20979200  0.86203600  0.83362600
   0.94039400  0.19989300  0.26146200
   0.48832200  0.97212000  0.51878500
   0.43513000  0.71194500  0.22624400
   0.90691700  0.14781300  0.53820800
   0.67842300  0.51280200  0.15379100
   0.30704400  0.72102000  0.02768830
   0.75027400  0.20365600  0.38397100
   0.73975800  0.10443000  0.17764000
   0.33435200  0.36708700  0.53174500
   0.67860700  0.04749630  0.67898300
   0.39920200  0.27002000  0.72797700
   0.78143700  0.49312400  0.75472500
   0.46961600  0.35170300  0.03212020
   0.28536400  0.28725800  0.91555500
   0.02598300  0.04299660  0.70165800
   0.04712550  0.61088800  0.66731900
   0.56596400  0.19559200  0.53532700
   0.04921960  0.01599000  0.92361200
   0.78516300  0.88406800  0.27005700
   0.75701200  0.33267900  0.58084900
   0.10066300  0.63907600  0.04296030
   0.32888000  0.13784000  0.55143600
   0.25171700  0.08087940  0.76249700
   0.66705000  0.56460200  0.56802700
   0.96859000  0.76421000  0.41432900
   0.25259800  0.26688000  0.15973200
   0.30275300  0.85679400  0.62649000
   0.76803500  0.42877700  0.35144600
   0.32903300  0.05167690  0.35290000
   0.84953700  0.10247900  0.96906700
   0.60300100  0.61835400  0.35849900
   0.06402000  0.39049800  0.19205800
   0.26990600  0.47652500  0.08065630
 
 position of ions in cartesian coordinates  (Angst):
   0.59533016  2.18354440  0.53991850
   1.78107875  7.08058936  5.14722659
   6.14179557  8.08134651  9.41478395
   2.58006696  4.33662791  3.10611213
   1.54899189  2.29289930  3.80139240
   6.19165830  3.02518603  2.14914187
   5.68131842  4.18645766  4.49710155
   8.91703484  3.40412440  9.28939700
   8.39998600  3.38657084  1.29206046
   8.99455029  5.68231914  5.46830663
   8.43575687  6.45804557  3.01352450
   4.20267352  2.72175145  3.61308222
   7.36807358  0.03676138  4.78579073
   5.87794075  9.60309209  1.32205162
   8.12941202  8.78061947  0.28802236
   1.41793756  8.97161528  0.67748368
   0.67400769  8.40403996  6.77274342
   6.63221283  0.21791432  9.36056091
   9.23157952  5.58557544  1.05653233
   5.66499024  0.82702387  3.31695907
   9.82886007  7.91714567  1.66650577
   6.01012855  6.32003722  7.92769414
   9.05137726  9.35764042  5.93782096
   9.78837149  5.76246917  8.80479008
   6.64413986  8.44589688  7.07808755
   6.78693740  7.51144297  1.50565430
   5.09583214  7.35517646  5.69159118
   8.68527475  9.49872244  8.22790188
   4.70983763  1.53004956  9.25799665
   4.12049140  7.58006422  8.13046380
   9.72781733  0.05442727  1.45192142
   4.27885127  9.34660180  9.65813409
   1.52299342  8.72710103  3.09394002
   5.95111633  8.55978568  3.52394608
   6.34297223  2.81507431  7.73682088
   5.13775033  4.60414865  6.69092893
   1.44674419  4.80946097  5.15808141
   9.76567134  3.85528867  6.84658274
   5.17379690  6.29388558  0.33422223
   1.53793284  0.79586656  2.17047369
   0.99799391  4.21568296  9.72061822
   3.24736774  6.08980885  6.57074984
   7.60589930  7.71463130  4.95621037
   7.88974823  6.69810761  9.63934494
   2.13800113  6.60123115  2.42218704
   4.47851663  1.44269023  1.47543849
   3.63984655  8.37073007  4.10102830
   2.00809049  6.24918986  8.61320201
   4.61151114  4.93998430  2.25812916
   9.85882060  3.46798709  4.40609671
   2.08647393  4.09910853  7.48154372
   3.66702955  5.94691940  4.23386963
   0.87170836  2.37743005  8.32476813
   2.69966399  0.70985207  0.05177228
   8.47068018  1.89661160  7.71548907
   1.15808565  2.40725783  5.95783549
   6.71923519  2.40880998 10.16134022
   0.30661648  5.68897704  3.42512944
   1.48369959 10.15220155  5.24655380
   8.68368175  7.22623592  7.24068518
   6.51066541  4.70419067  9.52492513
  10.15679202  7.98907544  9.08516710
   4.74619055 10.08654715  7.67164091
   9.83973531 10.17443748  3.81584166
   3.43514692  9.39331939  1.72478277
   3.98399435  4.91586475  8.78889079
   2.14228996  8.80267630  8.51256773
   9.60282863  2.04120637  2.66991791
   4.98649766  9.92679852  5.29757043
   4.44332782  7.27002281  2.31028947
   9.26097841  1.50939171  5.49590830
   6.92771307  5.23647506  1.57043603
   3.13537827  7.36269212  0.28273894
   7.66141920  2.07963223  3.92091795
   7.55403512  1.06638642  1.81396997
   3.41423378  3.74850707  5.42991141
   6.92959199  0.48500823  6.93343151
   4.07644923  2.75730788  7.43373350
   7.97964002  5.03553326  7.70687056
   4.79548144  3.59141343  0.32799526
   2.91399306  2.93333363  9.34918530
   0.26532527  0.43905957  7.16497716
   0.48122181  6.23807976  6.81432463
   5.77933856  1.99728673  5.46648898
   0.50260570  0.16328181  9.43145932
   8.01768805  9.02765596  2.75768571
   7.73022425  3.39714995  5.93133666
   1.02791972  6.52592138  0.43868889
   3.35835648  1.40755247  5.63098596
   2.57040689  0.82589959  7.78623430
   6.81157774  5.76543050  5.80040487
   9.89075194  7.80372659  4.23091851
   2.57940321  2.72524379  1.63110252
   3.09156075  8.74914765  6.39739950
   7.84278556  4.37845419  3.58878907
   3.35991883  0.52769841  3.60363659
   8.67504283  1.04646380  9.89562283
   6.15754170  6.31431878  3.66081075
   0.65373991  3.98756837  1.96119931
   2.75614377  4.86603265  0.82362140
 


--------------------------------------------------------------------------------------------------------


 k-point  1 :   0.0000 0.0000 0.0000  plane waves:    9315

 maximum and minimum number of plane-waves per node :      9315     9315

 maximum number of plane-waves:      9315
 maximum index in each direction: 
   IXMAX=   13   IYMAX=   13   IZMAX=   13
   IXMIN=  -13   IYMIN=  -13   IZMIN=  -13


 serial   3D FFT for wavefunctions
 parallel 3D FFT for charge:
    minimum data exchange during FFTs selected (reduces bandwidth)


 total amount of memory used by VASP MPI-rank0    53951. kBytes
=======================================================================

   base      :      30000. kBytes
   nonlr-proj:       8283. kBytes
   fftplans  :       1377. kBytes
   grid      :       7520. kBytes
   one-center:        614. kBytes
   wavefun   :       6157. kBytes
 
     INWAV:  cpu time    0.0000: real time    0.0001
 Broyden mixing: mesh for mixing (old mesh)
   NGX = 27   NGY = 27   NGZ = 27
  (NGX  = 80   NGY  = 80   NGZ  = 80)
  gives a total of  19683 points

 initial charge density was supplied:
 charge density of overlapping atoms calculated
 number of electron     400.0000000 magnetization     100.0000000
 keeping initial charge density in first step


--------------------------------------------------------------------------------------------------------


 Maximum index for non-local projection operator          952
 Maximum index for augmentation-charges          191 (set IRDMAX)


--------------------------------------------------------------------------------------------------------


 First call to EWALD:  gamma=   0.174
 Maximum number of real-space cells 3x 3x 3
 Maximum number of reciprocal cells 3x 3x 3

    FEWALD:  cpu time    0.0072: real time    0.0073


--------------------------------------- Iteration      1(   1)  ---------------------------------------


    POTLOK:  cpu time    0.0553: real time    0.1708
    SETDIJ:  cpu time    0.0346: real time    0.0347
    EDDIAG:  cpu time    0.3475: real time    0.3495
  RMM-DIIS:  cpu time    0.4319: real time    0.4370
    ORTHCH:  cpu time    0.0967: real time    0.0973
       DOS:  cpu time    0.0006: real time    0.0006
    --------------------------------------------
      LOOP:  cpu time    0.9666: real time    1.0899

 eigenvalue-minimisations  :   608
 total energy-change (2. order) : 0.1361473E+04  (-0.7441782E+04)
 number of electron     400.0000000 magnetization     100.0000000
 augmentation part      400.0000000 magnetization     100.0000000

 Free energy of the ion-electron system (eV)
  ---------------------------------------------------
  alpha Z        PSCENC =       316.14514549
  Ewald energy   TEWEN  =    -15004.33042083
  -Hartree energ DENC   =       -60.18140545
  -exchange      EXHF   =         0.00000000
  -V(xc)+E(xc)   XCENC  =      -778.33204072
  PAW double counting   =      8803.41707833    -7043.47671478
  entropy T*S    EENTRO =        -0.02820035
  eigenvalues    EBANDS =      4822.13081963
  atomic energy  EATOM  =     10306.12861560
  Solvation  Ediel_sol  =         0.00000000
  ---------------------------------------------------
  free energy    TOTEN  =      1361.47287692 eV

  energy without entropy =     1361.50107727  energy(sigma->0) =     1361.48697709


--------------------------------------------------------------------------------------------------------




--------------------------------------- Iteration      1(   2)  ---------------------------------------


    EDDIAG:  cpu time    0.3393: real time    0.3414
  RMM-DIIS:  cpu time    0.4390: real time    0.4441
    ORTHCH:  cpu time    0.0973: real time    0.0979
       DOS:  cpu time    0.0003: real time    0.0003
    --------------------------------------------
      LOOP:  cpu time    0.8759: real time    0.8838

 eigenvalue-minimisations  :   608
 total energy-change (2. order) :-0.1365932E+04  (-0.1304933E+04)
 number of electron     400.0000000 magnetization     100.0000000
 augmentation part      400.0000000 magnetization     100.0000000

 Free energy of the ion-electron system (eV)
  ---------------------------------------------------
  alpha Z        PSCENC =       316.14514549
  Ewald energy   TEWEN  =    -15004.33042083
  -Hartree energ DENC   =       -60.18140545
  -exchange      EXHF   =         0.00000000
  -V(xc)+E(xc)   XCENC  =      -778.33204072
  PAW double counting   =      8803.41707833    -7043.47671478
  entropy T*S    EENTRO =        -0.01319947
  eigenvalues    EBANDS =      3456.18411498
  atomic energy  EATOM  =     10306.12861560
  Solvation  Ediel_sol  =         0.00000000
  ---------------------------------------------------
  free energy    TOTEN  =        -4.45882685 eV

  energy without entropy =       -4.44562738  energy(sigma->0) =       -4.45222711


--------------------------------------------------------------------------------------------------------




--------------------------------------- Iteration      1(   3)  ---------------------------------------


    EDDIAG:  cpu time    0.3382: real time    0.3403
  RMM-DIIS:  cpu time    0.4357: real time    0.4407
    ORTHCH:  cpu time    0.0970: real time    0.0976
       DOS:  cpu time    0.0003: real time    0.0003
    --------------------------------------------
      LOOP:  cpu time    0.8712: real time    0.8790

 eigenvalue-minimisations  :   608
 total energy-change (2. order) :-0.2873228E+03  (-0.2788749E+03)
 number of electron     400.0000000 magnetization     100.0000000
 augmentation part      400.0000000 magnetization     100.0000000

 Free energy of the ion-electron system (eV)
  ---------------------------------------------------
  alpha Z        PSCENC =       316.14514549
  Ewald energy   TEWEN  =    -15004.33042083
  -Hartree energ DENC   =       -60.18140545
  -exchange      EXHF   =         0.00000000
  -V(xc)+E(xc)   XCENC  =      -778.33204072
  PAW double counting   =      8803.41707833    -7043.47671478
  entropy T*S    EENTRO =        -0.04391254
  eigenvalues    EBANDS =      3168.89204003
  atomic energy  EATOM  =     10306.12861560
  Solvation  Ediel_sol  =         0.00000000
  ---------------------------------------------------
  free energy    TOTEN  =      -291.78161487 eV

  energy without entropy =     -291.73770233  energy(sigma->0) =     -291.75965860


--------------------------------------------------------------------------------------------------------




--------------------------------------- Iteration      1(   4)  ---------------------------------------


    EDDIAG:  cpu time    0.3393: real time    0.3414
  RMM-DIIS:  cpu time    0.4412: real time    0.4468
    ORTHCH:  cpu time    0.0969: real time    0.0975
       DOS:  cpu time    0.0003: real time    0.0003
    --------------------------------------------
      LOOP:  cpu time    0.8777: real time    0.8861

 eigenvalue-minimisations  :   608
 total energy-change (2. order) :-0.7733132E+02  (-0.6537702E+02)
 number of electron     400.0000000 magnetization     100.0000000
 augmentation part      400.0000000 magnetization     100.0000000

 Free energy of the ion-electron system (eV)
  ---------------------------------------------------
  alpha Z        PSCENC =       316.14514549
  Ewald energy   TEWEN  =    -15004.33042083
  -Hartree energ DENC   =       -60.18140545
  -exchange      EXHF   =         0.00000000
  -V(xc)+E(xc)   XCENC  =      -778.33204072
  PAW double counting   =      8803.41707833    -7043.47671478
  entropy T*S    EENTRO =        -0.08470427
  eigenvalues    EBANDS =      3091.60150943
  atomic energy  EATOM  =     10306.12861560
  Solvation  Ediel_sol  =         0.00000000
  ---------------------------------------------------
  free energy    TOTEN  =      -369.11293720 eV

  energy without entropy =     -369.02823293  energy(sigma->0) =     -369.07058506


--------------------------------------------------------------------------------------------------------




--------------------------------------- Iteration      1(   5)  ---------------------------------------


    EDDIAG:  cpu time    0.3387: real time    0.3408
  RMM-DIIS:  cpu time    0.4386: real time    0.4438
    ORTHCH:  cpu time    0.0971: real time    0.0976
       DOS:  cpu time    0.0003: real time    0.0003
    --------------------------------------------
      LOOP:  cpu time    0.8747: real time    0.8825

 eigenvalue-minimisations  :   608
 total energy-change (2. order) :-0.2475493E+02  (-0.2008249E+02)
 number of electron     400.0000000 magnetization     100.0000000
 augmentation part      400.0000000 magnetization     100.0000000

 Free energy of the ion-electron system (eV)
  ---------------------------------------------------
  alpha Z        PSCENC =       316.14514549
  Ewald energy   TEWEN  =    -15004.33042083
  -Hartree energ DENC   =       -60.18140545
  -exchange      EXHF   =         0.00000000
  -V(xc)+E(xc)   XCENC  =      -778.33204072
  PAW double counting   =      8803.41707833    -7043.47671478
  entropy T*S    EENTRO =        -0.04631864
  eigenvalues    EBANDS =      3066.80819406
  atomic energy  EATOM  =     10306.12861560
  Solvation  Ediel_sol  =         0.00000000
  ---------------------------------------------------
  free energy    TOTEN  =      -393.86786694 eV

  energy without entropy =     -393.82154830  energy(sigma->0) =     -393.84470762


--------------------------------------------------------------------------------------------------------




--------------------------------------- Iteration      1(   6)  ---------------------------------------


    EDDIAG:  cpu time    0.3387: real time    0.3409
  RMM-DIIS:  cpu time    0.4387: real time    0.4437
    ORTHCH:  cpu time    0.0973: real time    0.0979
       DOS:  cpu time    0.0003: real time    0.0003
    --------------------------------------------
      LOOP:  cpu time    0.8751: real time    0.8829

 eigenvalue-minimisations  :   608
 total energy-change (2. order) :-0.9221821E+01  (-0.6992930E+01)
 number of electron     400.0000000 magnetization     100.0000000
 augmentation part      400.0000000 magnetization     100.0000000

 Free energy of the ion-electron system (eV)
  ---------------------------------------------------
  alpha Z        PSCENC =       316.14514549
  Ewald energy   TEWEN  =    -15004.33042083
  -Hartree energ DENC   =       -60.18140545
  -exchange      EXHF   =         0.00000000
  -V(xc)+E(xc)   XCENC  =      -778.33204072
  PAW double counting   =      8803.41707833    -7043.47671478
  entropy T*S    EENTRO =        -0.04391909
  eigenvalues    EBANDS =      3057.58397345
  atomic energy  EATOM  =     10306.12861560
  Solvation  Ediel_sol  =         0.00000000
  ---------------------------------------------------
  free energy    TOTEN  =      -403.08968800 eV

  energy without entropy =     -403.04576891  energy(sigma->0) =     -403.06772845


--------------------------------------------------------------------------------------------------------




--------------------------------------- Iteration      1(   7)  ---------------------------------------


    EDDIAG:  cpu time    0.3336: real time    0.3398
  RMM-DIIS:  cpu time    0.4429: real time    0.4479
    ORTHCH:  cpu time    0.0970: real time    0.0976
       DOS:  cpu time    0.0003: real time    0.0003
    --------------------------------------------
      LOOP:  cpu time    0.8739: real time    0.8857

 eigenvalue-minimisations  :   608
 total energy-change (2. order) :-0.3395366E+01  (-0.2750578E+01)
 number of electron     400.0000000 magnetization     100.0000000
 augmentation part      400.0000000 magnetization     100.0000000

 Free energy of the ion-electron system (eV)
  ---------------------------------------------------
  alpha Z        PSCENC =       316.14514549
  Ewald energy   TEWEN  =    -15004.33042083
  -Hartree energ DENC   =       -60.18140545
  -exchange      EXHF   =         0.00000000
  -V(xc)+E(xc)   XCENC  =      -778.33204072
  PAW double counting   =      8803.41707833    -7043.47671478
  entropy T*S    EENTRO =        -0.05132728
  eigenvalues    EBANDS =      3054.19601519
  atomic energy  EATOM  =     10306.12861560
  Solvation  Ediel_sol  =         0.00000000
  ---------------------------------------------------
  free energy    TOTEN  =      -406.48505445 eV

  energy without entropy =     -406.43372717  energy(sigma->0) =     -406.45939081


--------------------------------------------------------------------------------------------------------




--------------------------------------- Iteration      1(   8)  ---------------------------------------


    EDDIAG:  cpu time    0.3371: real time    0.3392
  RMM-DIIS:  cpu time    0.4394: real time    0.4445
    ORTHCH:  cpu time    0.0968: real time    0.0974
       DOS:  cpu time    0.0003: real time    0.0003
    --------------------------------------------
      LOOP:  cpu time    0.8736: real time    0.8814

 eigenvalue-minimisations  :   608
 total energy-change (2. order) :-0.1381229E+01  (-0.1109944E+01)
 number of electron     400.0000000 magnetization     100.0000000
 augmentation part      400.0000000 magnetization     100.0000000

 Free energy of the ion-electron system (eV)
  ---------------------------------------------------
  alpha Z        PSCENC =       316.14514549
  Ewald energy   TEWEN  =    -15004.33042083
  -Hartree energ DENC   =       -60.18140545
  -exchange      EXHF   =         0.00000000
  -V(xc)+E(xc)   XCENC  =      -778.33204072
  PAW double counting   =      8803.41707833    -7043.47671478
  entropy T*S    EENTRO =        -0.04830826
  eigenvalues    EBANDS =      3052.81176690
  atomic energy  EATOM  =     10306.12861560
  Solvation  Ediel_sol  =         0.00000000
  ---------------------------------------------------
  free energy    TOTEN  =      -407.86628373 eV

  energy without entropy =     -407.81797546  energy(sigma->0) =     -407.84212959


--------------------------------------------------------------------------------------------------------




--------------------------------------- Iteration      1(   9)  ---------------------------------------


    EDDIAG:  cpu time    0.3375: real time    0.3395
  RMM-DIIS:  cpu time    0.9674: real time    0.9797
    ORTHCH:  cpu time    0.0971: real time    0.0977
       DOS:  cpu time    0.0003: real time    0.0003
    --------------------------------------------
      LOOP:  cpu time    1.4023: real time    1.4173

 eigenvalue-minimisations  :  1464
 total energy-change (2. order) :-0.7643544E+00  (-0.6998906E+00)
 number of electron     400.0000000 magnetization     100.0000000
 augmentation part      400.0000000 magnetization     100.0000000

 Free energy of the ion-electron system (eV)
  ---------------------------------------------------
  alpha Z        PSCENC =       316.14514549
  Ewald energy   TEWEN  =    -15004.33042083
  -Hartree energ DENC   =       -60.18140545
  -exchange      EXHF   =         0.00000000
  -V(xc)+E(xc)   XCENC  =      -778.33204072
  PAW double counting   =      8803.41707833    -7043.47671478
  entropy T*S    EENTRO =        -0.04636272
  eigenvalues    EBANDS =      3052.04546692
  atomic energy  EATOM  =     10306.12861560
  Solvation  Ediel_sol  =         0.00000000
  ---------------------------------------------------
  free energy    TOTEN  =      -408.63063816 eV

  energy without entropy =     -408.58427544  energy(sigma->0) =     -408.60745680


--------------------------------------------------------------------------------------------------------




--------------------------------------- Iteration      1(  10)  ---------------------------------------


    EDDIAG:  cpu time    0.3382: real time    0.3403
  RMM-DIIS:  cpu time    0.8996: real time    0.9108
    ORTHCH:  cpu time    0.0971: real time    0.0977
       DOS:  cpu time    0.0003: real time    0.0003
    --------------------------------------------
      LOOP:  cpu time    1.3353: real time    1.3491

 eigenvalue-minimisations  :  1365
 total energy-change (2. order) :-0.9322541E-01  (-0.4884102E-01)
 number of electron     400.0000000 magnetization     100.0000000
 augmentation part      400.0000000 magnetization     100.0000000

 Free energy of the ion-electron system (eV)
  ---------------------------------------------------
  alpha Z        PSCENC =       316.14514549
  Ewald energy   TEWEN  =    -15004.33042083
  -Hartree energ DENC   =       -60.18140545
  -exchange      EXHF   =         0.00000000
  -V(xc)+E(xc)   XCENC  =      -778.33204072
  PAW double counting   =      8803.41707833    -7043.47671478
  entropy T*S    EENTRO =        -0.04638830
  eigenvalues    EBANDS =      3051.95226709
  atomic energy  EATOM  =     10306.12861560
  Solvation  Ediel_sol  =         0.00000000
  ---------------------------------------------------
  free energy    TOTEN  =      -408.72386357 eV

  energy without entropy =     -408.67747527  energy(sigma->0) =     -408.70066942


--------------------------------------------------------------------------------------------------------




--------------------------------------- Iteration      1(  11)  ---------------------------------------


    EDDIAG:  cpu time    0.3377: real time    0.3398
  RMM-DIIS:  cpu time    0.8622: real time    0.8728
    ORTHCH:  cpu time    0.0972: real time    0.0977
       DOS:  cpu time    0.0003: real time    0.0003
    --------------------------------------------
      LOOP:  cpu time    1.2975: real time    1.3107

 eigenvalue-minimisations  :  1288
 total energy-change (2. order) :-0.1735062E-02  (-0.1231450E-02)
 number of electron     400.0000000 magnetization     100.0000000
 augmentation part      400.0000000 magnetization     100.0000000

 Free energy of the ion-electron system (eV)
  ---------------------------------------------------
  alpha Z        PSCENC =       316.14514549
  Ewald energy   TEWEN  =    -15004.33042083
  -Hartree energ DENC   =       -60.18140545
  -exchange      EXHF   =         0.00000000
  -V(xc)+E(xc)   XCENC  =      -778.33204072
  PAW double counting   =      8803.41707833    -7043.47671478
  entropy T*S    EENTRO =        -0.04638561
  eigenvalues    EBANDS =      3051.95052934
  atomic energy  EATOM  =     10306.12861560
  Solvation  Ediel_sol  =         0.00000000
  ---------------------------------------------------
  free energy    TOTEN  =      -408.72559863 eV

  energy without entropy =     -408.67921302  energy(sigma->0) =     -408.70240583


--------------------------------------------------------------------------------------------------------




--------------------------------------- Iteration      1(  12)  ---------------------------------------


    EDDIAG:  cpu time    0.3375: real time    0.3397
  RMM-DIIS:  cpu time    0.7536: real time    0.7628
    ORTHCH:  cpu time    0.0975: real time    0.0981
       DOS:  cpu time    0.0003: real time    0.0003
    CHARGE:  cpu time    0.0446: real time    0.0448
    MIXING:  cpu time    0.0010: real time    0.0010
    --------------------------------------------
      LOOP:  cpu time    1.2346: real time    1.2467

 eigenvalue-minimisations  :  1009
 total energy-change (2. order) :-0.1365613E-04  (-0.1373679E-04)
 number of electron     399.9999910 magnetization      68.8036301
 augmentation part      -23.2506587 magnetization      38.9327209

 Broyden mixing:
  rms(total) = 0.59595E+01    rms(broyden)= 0.59595E+01
  rms(prec ) = 0.60865E+01
  weight for this iteration     100.00

 Free energy of the ion-electron system (eV)
  ---------------------------------------------------
  alpha Z        PSCENC =       316.14514549
  Ewald energy   TEWEN  =    -15004.33042083
  -Hartree energ DENC   =       -60.18140545
  -exchange      EXHF   =         0.00000000
  -V(xc)+E(xc)   XCENC  =      -778.33204072
  PAW double counting   =      8803.41707833    -7043.47671478
  entropy T*S    EENTRO =        -0.04638561
  eigenvalues    EBANDS =      3051.95051569
  atomic energy  EATOM  =     10306.12861560
  Solvation  Ediel_sol  =         0.00000000
  ---------------------------------------------------
  free energy    TOTEN  =      -408.72561229 eV

  energy without entropy =     -408.67922667  energy(sigma->0) =     -408.70241948


--------------------------------------------------------------------------------------------------------




--------------------------------------- Iteration      1(  13)  ---------------------------------------


    POTLOK:  cpu time    0.0527: real time    0.0531
    SETDIJ:  cpu time    0.0348: real time    0.0349
    EDDIAG:  cpu time    0.3371: real time    0.3390
  RMM-DIIS:  cpu time    0.8933: real time    0.9046
    ORTHCH:  cpu time    0.0994: real time    0.1000
       DOS:  cpu time    0.0004: real time    0.0004
    CHARGE:  cpu time    0.0450: real time    0.0451
    MIXING:  cpu time    0.0012: real time    0.0012
    --------------------------------------------
      LOOP:  cpu time    1.4639: real time    1.4784

 eigenvalue-minimisations  :  1350
 total energy-change (2. order) :-0.6577585E+01  (-0.7511598E+00)
 number of electron     399.9999908 magnetization      30.1542639
 augmentation part      -23.3470565 magnetization      10.8218850

 Broyden mixing:
  rms(total) = 0.36224E+01    rms(broyden)= 0.36224E+01
  rms(prec ) = 0.36785E+01
  weight for this iteration     100.00

 eigenvalues of (default mixing * dielectric matrix)
  average eigenvalue GAMMA=   1.2527
  1.2527

 Free energy of the ion-electron system (eV)
  ---------------------------------------------------
  alpha Z        PSCENC =       316.14514549
  Ewald energy   TEWEN  =    -15004.33042083
  -Hartree energ DENC   =       -72.67673851
  -exchange      EXHF   =         0.00000000
  -V(xc)+E(xc)   XCENC  =      -778.08981785
  PAW double counting   =     29997.31006814   -28242.90724776
  entropy T*S    EENTRO =        -0.06089474
  eigenvalues    EBANDS =      3063.17809280
  atomic energy  EATOM  =     10306.12861560
  Solvation  Ediel_sol  =         0.00000000
  ---------------------------------------------------
  free energy    TOTEN  =      -415.30319767 eV

  energy without entropy =     -415.24230293  energy(sigma->0) =     -415.27275030


--------------------------------------------------------------------------------------------------------




--------------------------------------- Iteration      1(  14)  ---------------------------------------


    POTLOK:  cpu time    0.0531: real time    0.0550
    SETDIJ:  cpu time    0.0348: real time    0.0349
    EDDIAG:  cpu time    0.3361: real time    0.3379
  RMM-DIIS:  cpu time    0.8947: real time    0.9056
    ORTHCH:  cpu time    0.0984: real time    0.0990
       DOS:  cpu time    0.0004: real time    0.0004
    CHARGE:  cpu time    0.0447: real time    0.0448
    MIXING:  cpu time    0.0013: real time    0.0013
    --------------------------------------------
      LOOP:  cpu time    1.4634: real time    1.4790

 eigenvalue-minimisations  :  1341
 total energy-change (2. order) :-0.8404623E+01  (-0.4635075E+00)
 number of electron     399.9999907 magnetization      13.2317836
 augmentation part      -23.5086663 magnetization       5.5302956

 Broyden mixing:
  rms(total) = 0.16587E+01    rms(broyden)= 0.16587E+01
  rms(prec ) = 0.17574E+01
  weight for this iteration     100.00

 eigenvalues of (default mixing * dielectric matrix)
  average eigenvalue GAMMA=   1.4885
  2.3863  0.5906

 Free energy of the ion-electron system (eV)
  ---------------------------------------------------
  alpha Z        PSCENC =       316.14514549
  Ewald energy   TEWEN  =    -15004.33042083
  -Hartree energ DENC   =       -81.18405744
  -exchange      EXHF   =         0.00000000
  -V(xc)+E(xc)   XCENC  =      -773.87565994
  PAW double counting   =     67493.37677146   -65744.16045158
  entropy T*S    EENTRO =        -0.06253379
  eigenvalues    EBANDS =      3064.25477058
  atomic energy  EATOM  =     10306.12861560
  Solvation  Ediel_sol  =         0.00000000
  ---------------------------------------------------
  free energy    TOTEN  =      -423.70782045 eV

  energy without entropy =     -423.64528666  energy(sigma->0) =     -423.67655356


--------------------------------------------------------------------------------------------------------




--------------------------------------- Iteration      1(  15)  ---------------------------------------


    POTLOK:  cpu time    0.0525: real time    0.0528
    SETDIJ:  cpu time    0.0348: real time    0.0349
    EDDIAG:  cpu time    0.3366: real time    0.3386
  RMM-DIIS:  cpu time    0.9146: real time    0.9259
    ORTHCH:  cpu time    0.0988: real time    0.0994
       DOS:  cpu time    0.0004: real time    0.0004
    CHARGE:  cpu time    0.0438: real time    0.0440
    MIXING:  cpu time    0.0014: real time    0.0014
    --------------------------------------------
      LOOP:  cpu time    1.4829: real time    1.4974

 eigenvalue-minimisations  :  1397
 total energy-change (2. order) :-0.9647538E+00  (-0.7471486E-01)
 number of electron     399.9999907 magnetization       9.0264002
 augmentation part      -23.5747509 magnetization       5.1318102

 Broyden mixing:
  rms(total) = 0.37199E+00    rms(broyden)= 0.37198E+00
  rms(prec ) = 0.42488E+00
  weight for this iteration     100.00

 eigenvalues of (default mixing * dielectric matrix)
  average eigenvalue GAMMA=   1.3323
  2.3877  1.0078  0.6014

 Free energy of the ion-electron system (eV)
  ---------------------------------------------------
  alpha Z        PSCENC =       316.14514549
  Ewald energy   TEWEN  =    -15004.33042083
  -Hartree energ DENC   =       -85.78223850
  -exchange      EXHF   =         0.00000000
  -V(xc)+E(xc)   XCENC  =      -771.73781991
  PAW double counting   =     83840.03300906   -82093.37868489
  entropy T*S    EENTRO =        -0.03991289
  eigenvalues    EBANDS =      3068.28973259
  atomic energy  EATOM  =     10306.12861560
  Solvation  Ediel_sol  =         0.00000000
  ---------------------------------------------------
  free energy    TOTEN  =      -424.67257427 eV

  energy without entropy =     -424.63266138  energy(sigma->0) =     -424.65261782


--------------------------------------------------------------------------------------------------------




--------------------------------------- Iteration      1(  16)  ---------------------------------------


    POTLOK:  cpu time    0.0524: real time    0.0528
    SETDIJ:  cpu time    0.0348: real time    0.0349
    EDDIAG:  cpu time    0.3368: real time    0.3387
  RMM-DIIS:  cpu time    0.9195: real time    0.9307
    ORTHCH:  cpu time    0.0988: real time    0.0994
       DOS:  cpu time    0.0003: real time    0.0003
    CHARGE:  cpu time    0.0438: real time    0.0439
    MIXING:  cpu time    0.0015: real time    0.0015
    --------------------------------------------
      LOOP:  cpu time    1.4879: real time    1.5023

 eigenvalue-minimisations  :  1395
 total energy-change (2. order) :-0.2103879E+00  (-0.4004194E-01)
 number of electron     399.9999907 magnetization       5.2973151
 augmentation part      -23.5850027 magnetization       2.3739101

 Broyden mixing:
  rms(total) = 0.23385E+00    rms(broyden)= 0.23385E+00
  rms(prec ) = 0.27000E+00
  weight for this iteration     100.00

 eigenvalues of (default mixing * dielectric matrix)
  average eigenvalue GAMMA=   1.4035
  2.3312  1.9135  0.7444  0.6248

 Free energy of the ion-electron system (eV)
  ---------------------------------------------------
  alpha Z        PSCENC =       316.14514549
  Ewald energy   TEWEN  =    -15004.33042083
  -Hartree energ DENC   =       -85.30547677
  -exchange      EXHF   =         0.00000000
  -V(xc)+E(xc)   XCENC  =      -771.61912560
  PAW double counting   =     83338.64720352   -81592.19840608
  entropy T*S    EENTRO =        -0.04424014
  eigenvalues    EBANDS =      3067.69374267
  atomic energy  EATOM  =     10306.12861560
  Solvation  Ediel_sol  =         0.00000000
  ---------------------------------------------------
  free energy    TOTEN  =      -424.88296215 eV

  energy without entropy =     -424.83872201  energy(sigma->0) =     -424.86084208


--------------------------------------------------------------------------------------------------------




--------------------------------------- Iteration      1(  17)  ---------------------------------------


    POTLOK:  cpu time    0.0524: real time    0.0528
    SETDIJ:  cpu time    0.0352: real time    0.0353
    EDDIAG:  cpu time    0.3370: real time    0.3389
  RMM-DIIS:  cpu time    0.9427: real time    0.9545
    ORTHCH:  cpu time    0.0992: real time    0.0998
       DOS:  cpu time    0.0004: real time    0.0004
    CHARGE:  cpu time    0.0438: real time    0.0440
    MIXING:  cpu time    0.0016: real time    0.0016
    --------------------------------------------
      LOOP:  cpu time    1.5123: real time    1.5273

 eigenvalue-minimisations  :  1430
 total energy-change (2. order) :-0.9847064E-01  (-0.9586379E-02)
 number of electron     399.9999907 magnetization       2.8014675
 augmentation part      -23.5912371 magnetization       0.6597058

 Broyden mixing:
  rms(total) = 0.12221E+00    rms(broyden)= 0.12221E+00
  rms(prec ) = 0.15506E+00
  weight for this iteration     100.00

 eigenvalues of (default mixing * dielectric matrix)
  average eigenvalue GAMMA=   1.3972
  2.3626  2.3626  0.6109  0.8250  0.8250

 Free energy of the ion-electron system (eV)
  ---------------------------------------------------
  alpha Z        PSCENC =       316.14514549
  Ewald energy   TEWEN  =    -15004.33042083
  -Hartree energ DENC   =       -85.04393192
  -exchange      EXHF   =         0.00000000
  -V(xc)+E(xc)   XCENC  =      -771.47442081
  PAW double counting   =     82653.74704742   -80907.46325520
  entropy T*S    EENTRO =        -0.04504611
  eigenvalues    EBANDS =      3067.35483356
  atomic energy  EATOM  =     10306.12861560
  Solvation  Ediel_sol  =         0.00000000
  ---------------------------------------------------
  free energy    TOTEN  =      -424.98143279 eV

  energy without entropy =     -424.93638668  energy(sigma->0) =     -424.95890974


--------------------------------------------------------------------------------------------------------




--------------------------------------- Iteration      1(  18)  ---------------------------------------


    POTLOK:  cpu time    0.0525: real time    0.0529
    SETDIJ:  cpu time    0.0348: real time    0.0349
    EDDIAG:  cpu time    0.3378: real time    0.3398
  RMM-DIIS:  cpu time    0.9359: real time    0.9478
    ORTHCH:  cpu time    0.0994: real time    0.1000
       DOS:  cpu time    0.0003: real time    0.0003
    CHARGE:  cpu time    0.0435: real time    0.0437
    MIXING:  cpu time    0.0017: real time    0.0017
    --------------------------------------------
      LOOP:  cpu time    1.5061: real time    1.5212

 eigenvalue-minimisations  :  1410
 total energy-change (2. order) :-0.3332662E-01  (-0.2966750E-02)
 number of electron     399.9999907 magnetization       1.6043607
 augmentation part      -23.5942308 magnetization       0.0258517

 Broyden mixing:
  rms(total) = 0.54204E-01    rms(broyden)= 0.54202E-01
  rms(prec ) = 0.65291E-01
  weight for this iteration     100.00

 eigenvalues of (default mixing * dielectric matrix)
  average eigenvalue GAMMA=   1.3725
  2.7235  2.3681  1.0546  0.8862  0.6013  0.6013

 Free energy of the ion-electron system (eV)
  ---------------------------------------------------
  alpha Z        PSCENC =       316.14514549
  Ewald energy   TEWEN  =    -15004.33042083
  -Hartree energ DENC   =       -84.98519784
  -exchange      EXHF   =         0.00000000
  -V(xc)+E(xc)   XCENC  =      -771.34046562
  PAW double counting   =     82312.94688373   -80566.78252076
  entropy T*S    EENTRO =        -0.05078774
  eigenvalues    EBANDS =      3067.25398855
  atomic energy  EATOM  =     10306.12861560
  Solvation  Ediel_sol  =         0.00000000
  ---------------------------------------------------
  free energy    TOTEN  =      -425.01475942 eV

  energy without entropy =     -424.96397168  energy(sigma->0) =     -424.98936555


--------------------------------------------------------------------------------------------------------




--------------------------------------- Iteration      1(  19)  ---------------------------------------


    POTLOK:  cpu time    0.0525: real time    0.0528
    SETDIJ:  cpu time    0.0348: real time    0.0349
    EDDIAG:  cpu time    0.3373: real time    0.3392
  RMM-DIIS:  cpu time    0.9322: real time    0.9438
    ORTHCH:  cpu time    0.0992: real time    0.0998
       DOS:  cpu time    0.0003: real time    0.0003
    CHARGE:  cpu time    0.0437: real time    0.0438
    MIXING:  cpu time    0.0018: real time    0.0018
    --------------------------------------------
      LOOP:  cpu time    1.5018: real time    1.5165

 eigenvalue-minimisations  :  1423
 total energy-change (2. order) :-0.6627260E-02  (-0.7835526E-03)
 number of electron     399.9999907 magnetization       1.0702517
 augmentation part      -23.5952180 magnetization      -0.0494678

 Broyden mixing:
  rms(total) = 0.24181E-01    rms(broyden)= 0.24179E-01
  rms(prec ) = 0.27890E-01
  weight for this iteration     100.00

 eigenvalues of (default mixing * dielectric matrix)
  average eigenvalue GAMMA=   1.3376
  2.9413  2.3562  1.0627  1.0627  0.7881  0.6150  0.5367

 Free energy of the ion-electron system (eV)
  ---------------------------------------------------
  alpha Z        PSCENC =       316.14514549
  Ewald energy   TEWEN  =    -15004.33042083
  -Hartree energ DENC   =       -85.19255593
  -exchange      EXHF   =         0.00000000
  -V(xc)+E(xc)   XCENC  =      -771.26775289
  PAW double counting   =     82180.83353703   -80434.72444202
  entropy T*S    EENTRO =        -0.05820508
  eigenvalues    EBANDS =      3067.44469195
  atomic energy  EATOM  =     10306.12861560
  Solvation  Ediel_sol  =         0.00000000
  ---------------------------------------------------
  free energy    TOTEN  =      -425.02138668 eV

  energy without entropy =     -424.96318159  energy(sigma->0) =     -424.99228414


--------------------------------------------------------------------------------------------------------




--------------------------------------- Iteration      1(  20)  ---------------------------------------


    POTLOK:  cpu time    0.0525: real time    0.0529
    SETDIJ:  cpu time    0.0348: real time    0.0349
    EDDIAG:  cpu time    0.3391: real time    0.3410
  RMM-DIIS:  cpu time    0.9231: real time    0.9346
    ORTHCH:  cpu time    0.0995: real time    0.1001
       DOS:  cpu time    0.0004: real time    0.0004
    CHARGE:  cpu time    0.0436: real time    0.0438
    MIXING:  cpu time    0.0020: real time    0.0020
    --------------------------------------------
      LOOP:  cpu time    1.4949: real time    1.5096

 eigenvalue-minimisations  :  1425
 total energy-change (2. order) :-0.1917987E-02  (-0.3294222E-03)
 number of electron     399.9999907 magnetization       0.7694201
 augmentation part      -23.5952371 magnetization      -0.0397932

 Broyden mixing:
  rms(total) = 0.13549E-01    rms(broyden)= 0.13547E-01
  rms(prec ) = 0.16278E-01
  weight for this iteration     100.00

 eigenvalues of (default mixing * dielectric matrix)
  average eigenvalue GAMMA=   1.3740
  3.3080  2.3045  1.5978  1.1405  0.8518  0.6646  0.6148  0.5099

 Free energy of the ion-electron system (eV)
  ---------------------------------------------------
  alpha Z        PSCENC =       316.14514549
  Ewald energy   TEWEN  =    -15004.33042083
  -Hartree energ DENC   =       -85.23957070
  -exchange      EXHF   =         0.00000000
  -V(xc)+E(xc)   XCENC  =      -771.25269539
  PAW double counting   =     82073.72809466   -80327.63059467
  entropy T*S    EENTRO =        -0.06262906
  eigenvalues    EBANDS =      3067.49075024
  atomic energy  EATOM  =     10306.12861560
  Solvation  Ediel_sol  =         0.00000000
  ---------------------------------------------------
  free energy    TOTEN  =      -425.02330466 eV

  energy without entropy =     -424.96067560  energy(sigma->0) =     -424.99199013


--------------------------------------------------------------------------------------------------------




--------------------------------------- Iteration      1(  21)  ---------------------------------------


    POTLOK:  cpu time    0.0524: real time    0.0528
    SETDIJ:  cpu time    0.0348: real time    0.0349
    EDDIAG:  cpu time    0.3380: real time    0.3399
  RMM-DIIS:  cpu time    0.9281: real time    0.9398
    ORTHCH:  cpu time    0.0992: real time    0.0998
       DOS:  cpu time    0.0004: real time    0.0004
    CHARGE:  cpu time    0.0440: real time    0.0442
    MIXING:  cpu time    0.0022: real time    0.0022
    --------------------------------------------
      LOOP:  cpu time    1.4990: real time    1.5139

 eigenvalue-minimisations  :  1433
 total energy-change (2. order) :-0.7608774E-03  (-0.1187511E-03)
 number of electron     399.9999907 magnetization       0.5374657
 augmentation part      -23.5952116 magnetization      -0.0665639

 Broyden mixing:
  rms(total) = 0.88190E-02    rms(broyden)= 0.88172E-02
  rms(prec ) = 0.10501E-01
  weight for this iteration     100.00

 eigenvalues of (default mixing * dielectric matrix)
  average eigenvalue GAMMA=   1.4133
  3.7382  2.1308  2.1308  1.1387  0.9967  0.8444  0.4992  0.6203  0.6203

 Free energy of the ion-electron system (eV)
  ---------------------------------------------------
  alpha Z        PSCENC =       316.14514549
  Ewald energy   TEWEN  =    -15004.33042083
  -Hartree energ DENC   =       -85.26535959
  -exchange      EXHF   =         0.00000000
  -V(xc)+E(xc)   XCENC  =      -771.24848951
  PAW double counting   =     82051.39340721   -80305.29866138
  entropy T*S    EENTRO =        -0.06468266
  eigenvalues    EBANDS =      3067.51638014
  atomic energy  EATOM  =     10306.12861560
  Solvation  Ediel_sol  =         0.00000000
  ---------------------------------------------------
  free energy    TOTEN  =      -425.02406554 eV

  energy without entropy =     -424.95938288  energy(sigma->0) =     -424.99172421


--------------------------------------------------------------------------------------------------------




--------------------------------------- Iteration      1(  22)  ---------------------------------------


    POTLOK:  cpu time    0.0539: real time    0.0542
    SETDIJ:  cpu time    0.0348: real time    0.0349
    EDDIAG:  cpu time    0.3378: real time    0.3397
  RMM-DIIS:  cpu time    0.9346: real time    0.9461
    ORTHCH:  cpu time    0.0990: real time    0.0996
       DOS:  cpu time    0.0004: real time    0.0004
    CHARGE:  cpu time    0.0436: real time    0.0437
    MIXING:  cpu time    0.0023: real time    0.0023
    --------------------------------------------
[...]
   -.217E+01 0.156E+01 -.435E-01   0.158E+01 -.207E+01 -.904E+00   0.150E+00 0.463E+00 0.167E+01   0.230E-02 -.250E-03 0.401E-03
   0.724E+01 0.781E+01 0.552E+00   -.701E+01 -.729E+01 0.358E+00   -.875E+00 -.121E+01 -.741E+00   -.185E-02 0.387E-03 0.146E-03
   -.295E+01 0.288E+01 -.882E+01   0.199E+01 -.378E+01 0.697E+01   0.427E+00 0.657E+00 0.389E+01   0.169E-02 -.389E-03 0.471E-03
   0.212E+01 -.156E+01 -.144E+02   -.147E+01 -.321E+00 0.130E+02   -.897E+00 0.234E+01 0.217E+01   0.861E-03 -.232E-03 -.519E-03
   0.830E+01 -.165E+02 -.764E+01   -.798E+01 0.158E+02 0.648E+01   -.108E+01 0.254E+01 0.143E+01   0.105E-03 -.648E-03 -.853E-03
   -.676E+00 0.272E+01 -.973E+01   0.590E+00 -.169E+01 0.946E+01   0.183E+00 -.816E+00 0.113E+01   -.534E-03 0.832E-03 0.178E-03
   -.389E+01 0.152E+01 -.865E+01   0.341E+01 -.662E+00 0.821E+01   -.126E+00 -.104E+01 0.131E+01   0.133E-02 0.411E-03 -.606E-03
   0.563E+01 -.826E+00 -.707E+01   -.556E+01 0.449E+00 0.575E+01   -.774E+00 -.406E+00 0.258E+01   0.721E-03 -.309E-03 -.698E-03
   -.765E+01 -.754E+00 -.120E+02   0.646E+01 0.550E-01 0.111E+02   0.251E+01 0.123E+01 0.155E+01   -.146E-02 0.500E-03 -.289E-03
   0.103E+02 -.124E+01 0.147E+02   -.104E+02 0.222E+01 -.144E+02   -.985E+00 -.126E+01 -.110E+01   0.919E-03 -.583E-03 0.119E-02
   0.108E+00 0.162E+02 -.112E+02   0.765E-01 -.148E+02 0.112E+02   -.158E+00 -.317E+01 0.386E+00   0.620E-03 0.306E-03 -.211E-03
   0.160E+02 -.875E+01 0.213E+01   -.151E+02 0.780E+01 -.117E+01   -.159E+01 0.171E+01 -.854E+00   0.245E-03 0.304E-03 0.326E-03
   -.175E+01 -.550E+01 -.759E+01   0.265E+01 0.564E+01 0.678E+01   -.248E+00 -.139E+01 0.106E+01   0.256E-02 -.571E-03 -.256E-03
   -.462E+01 -.131E+02 -.680E+01   0.346E+01 0.131E+02 0.720E+01   0.187E+01 0.939E+00 0.127E+00   -.185E-02 -.916E-03 -.913E-03
   -.543E+01 0.535E+01 0.520E+00   0.553E+01 -.460E+01 0.223E+00   0.347E+00 -.221E+01 -.102E+01   -.225E-02 -.419E-03 0.624E-03
   0.417E+01 -.124E+02 -.443E+01   -.667E+01 0.125E+02 0.420E+01   0.264E+01 0.120E+00 0.941E+00   0.215E-02 -.622E-03 -.185E-03
   -.116E+02 0.104E+02 0.620E+01   0.107E+02 -.890E+01 -.625E+01   0.119E+01 -.170E+01 -.648E+00   0.156E-02 0.792E-03 0.238E-03
   0.113E+02 -.110E+02 -.563E+01   -.117E+02 0.103E+02 0.587E+01   -.853E+00 0.129E+01 -.583E-01   0.239E-02 -.725E-03 -.788E-03
   -.627E+01 -.853E+01 0.385E+01   0.677E+01 0.831E+01 -.444E+01   0.378E+00 0.413E+00 0.818E-01   0.134E-02 -.382E-03 0.648E-03
   -.913E+01 0.520E+01 -.817E+00   0.770E+01 -.406E+01 -.578E+00   0.279E+01 -.176E+01 0.143E+01   0.180E-02 0.358E-03 -.269E-03
   0.594E+01 -.111E+02 0.487E+01   -.570E+01 0.100E+02 -.543E+01   -.709E+00 0.260E+01 0.928E+00   -.147E-02 0.716E-03 -.715E-03
   0.645E+01 -.956E+01 0.763E+01   -.595E+01 0.902E+01 -.648E+01   -.986E+00 0.223E+01 -.221E+01   0.142E-02 0.181E-03 -.991E-04
   -.743E+01 -.648E+01 -.103E+02   0.583E+01 0.570E+01 0.984E+01   0.312E+01 0.146E+01 0.106E+01   0.268E-02 -.580E-03 -.108E-02
   0.147E+02 0.631E+01 -.667E+00   -.134E+02 -.596E+01 0.137E+00   -.306E+01 -.109E+01 0.685E+00   -.131E-03 0.588E-03 0.277E-03
   0.670E+00 0.806E+00 0.891E+01   0.274E+00 -.244E+01 -.867E+01   -.130E+01 0.219E+01 -.498E+00   0.190E-02 0.596E-05 0.679E-03
   0.358E+00 0.223E+01 -.429E+01   -.170E+01 -.236E+01 0.419E+01   0.268E+01 -.534E-01 -.503E+00   -.199E-02 0.447E-03 0.415E-04
   -.102E+02 0.885E+01 -.619E+01   0.900E+01 -.879E+01 0.518E+01   0.191E+01 -.173E+00 0.172E+01   0.728E-03 0.833E-03 -.521E-03
   -.505E+01 0.330E+01 0.990E+01   0.438E+01 -.247E+01 -.118E+02   0.950E+00 -.786E+00 0.919E+00   -.120E-02 0.555E-03 0.621E-03
   0.663E+01 -.374E+01 0.410E+01   -.468E+01 0.489E+01 -.544E+01   -.200E+01 -.143E+01 0.975E+00   -.901E-03 -.323E-03 -.246E-03
   -.832E+01 0.804E+01 0.735E+01   0.811E+01 -.813E+01 -.718E+01   0.903E+00 0.244E+00 -.513E+00   0.944E-03 0.244E-03 -.719E-03
   0.123E+02 -.145E+02 -.966E+00   -.118E+02 0.139E+02 0.153E+01   -.133E+01 0.182E+01 -.310E+00   -.243E-02 -.867E-03 0.141E-03
   -.107E+02 0.122E+02 0.957E+01   0.102E+02 -.107E+02 -.855E+01   0.149E+01 -.280E+01 -.237E+01   -.829E-03 0.280E-03 0.779E-03
   0.273E+01 -.174E+01 -.740E+01   -.226E+01 0.284E+01 0.694E+01   -.374E+00 -.637E+00 0.133E+01   -.111E-02 -.517E-03 0.712E-03
   -.608E+01 -.244E+01 0.189E+02   0.506E+01 0.137E+01 -.178E+02   0.204E+01 0.888E+00 -.402E+01   0.140E-02 -.438E-03 0.334E-03
   -.516E+01 0.356E+01 -.162E+01   0.533E+01 -.232E+01 0.245E+01   0.172E+00 -.131E+01 -.105E+01   -.176E-02 0.148E-03 -.941E-03
   -.134E+02 0.714E+01 -.553E+01   0.133E+02 -.768E+01 0.478E+01   0.791E+00 -.172E+00 0.640E+00   0.220E-02 -.510E-03 -.626E-04
   -.110E+02 -.155E+02 0.212E+01   0.974E+01 0.149E+02 -.868E+00   0.188E+01 0.219E+01 -.131E+01   0.218E-02 0.114E-03 0.746E-03
   -.331E+01 0.164E+01 0.107E+01   0.324E+01 -.199E+01 -.225E+01   -.197E+00 0.450E-02 0.217E+01   0.177E-02 -.279E-03 0.778E-03
   0.281E+01 0.260E+00 -.107E+01   -.442E+01 0.557E+00 0.135E+01   0.225E+01 -.129E+01 -.382E+00   -.172E-02 0.234E-03 -.310E-03
   0.279E+00 0.725E+01 -.153E+02   -.766E+00 -.618E+01 0.155E+02   0.926E+00 -.149E+01 0.526E+00   0.127E-02 -.139E-03 -.526E-03
   0.504E+01 -.114E+02 0.104E+02   -.632E+01 0.118E+02 -.100E+02   0.883E+00 0.246E+00 -.140E+01   0.206E-02 -.993E-03 -.321E-03
   0.233E+01 0.498E+01 -.210E+01   -.181E+01 -.479E+01 0.158E+01   -.798E+00 -.564E+00 0.547E+00   -.199E-02 0.518E-03 -.577E-03
   -.567E+01 0.708E+01 0.993E+01   0.567E+01 -.771E+01 -.971E+01   -.710E-01 0.110E+00 -.899E+00   -.175E-02 0.135E-03 0.424E-03
   -.893E+01 -.207E+01 0.787E+01   0.902E+01 0.197E+01 -.735E+01   0.669E+00 0.627E+00 -.834E+00   0.238E-02 -.545E-03 0.826E-03
   0.519E+01 -.225E+01 0.743E+00   -.404E+01 0.156E+01 -.608E+00   -.161E+01 0.139E+01 -.463E+00   -.189E-02 0.637E-03 -.902E-03
   0.537E+01 0.910E+01 0.536E+01   -.480E+01 -.934E+01 -.484E+01   -.438E+00 -.356E+00 -.109E+01   -.124E-02 -.645E-04 0.210E-03
   -.184E+00 0.125E+01 -.539E+01   0.236E+00 -.170E+01 0.473E+01   -.440E+00 0.135E+01 0.878E+00   0.198E-02 0.325E-03 -.803E-03
   0.923E+01 -.337E+01 -.709E+01   -.899E+01 0.290E+01 0.593E+01   -.138E+01 0.695E+00 0.168E+01   -.114E-02 0.168E-03 -.546E-04
   -.987E+01 0.144E+02 0.661E+01   0.106E+02 -.136E+02 -.618E+01   -.437E+00 -.181E+01 -.123E+01   0.186E-02 0.528E-03 -.840E-04
   0.117E+02 0.151E+02 -.100E+02   -.973E+01 -.137E+02 0.107E+02   -.278E+01 -.250E+01 0.160E+00   -.235E-02 0.586E-04 -.137E-03
   -.350E+01 -.103E+01 0.214E+01   0.447E+01 0.131E+01 -.304E+01   -.173E+01 -.391E+00 0.161E+01   0.133E-02 0.845E-03 0.110E-02
   0.357E+01 0.512E+01 -.320E+01   -.185E+01 -.510E+01 0.280E+01   -.269E+01 -.559E+00 0.222E+01   0.213E-02 0.563E-03 0.732E-03
   -.515E+01 -.272E+01 -.229E+01   0.485E+01 0.185E+01 0.199E+01   0.645E+00 0.171E+01 0.755E+00   -.742E-03 0.407E-03 0.185E-03
   -.122E+02 0.641E+01 -.276E+00   0.111E+02 -.444E+01 -.410E+00   0.272E+01 -.423E+01 0.901E+00   -.679E-03 -.825E-03 -.115E-03
   0.386E+01 0.169E+01 -.130E+02   -.347E+01 -.173E+01 0.137E+02   -.119E+01 0.331E+00 -.344E+00   0.671E-04 0.799E-03 -.734E-03
   0.133E+01 -.529E+00 0.820E+01   -.225E+01 0.203E+00 -.803E+01   0.103E+01 0.601E+00 -.820E+00   -.606E-03 -.132E-04 0.970E-03
   -.758E+01 -.835E+01 -.450E+01   0.652E+01 0.924E+01 0.510E+01   0.216E+01 -.280E+00 -.325E+00   -.212E-02 -.219E-03 -.309E-03
   0.972E+01 0.300E+01 -.104E+00   -.994E+01 -.350E+01 0.201E+01   -.558E+00 0.104E+01 -.282E+01   -.206E-02 0.103E-02 -.656E-03
   0.751E+01 0.158E+01 -.499E+01   -.843E+01 -.371E+00 0.495E+01   -.130E-01 -.141E+01 0.194E+00   0.382E-03 -.253E-03 0.369E-03
   -.137E+01 0.117E+02 -.117E+02   0.156E+01 -.122E+02 0.120E+02   -.158E+00 0.102E+01 0.802E+00   0.206E-02 0.825E-03 -.482E-03
   -.364E+01 0.761E+01 0.102E+02   0.429E+01 -.827E+01 -.992E+01   -.489E+00 0.340E+00 -.596E+00   0.197E-02 0.209E-03 0.217E-03
   0.141E+01 0.442E+00 -.512E+01   -.171E+01 -.875E+00 0.476E+01   0.356E+00 -.278E+00 0.524E+00   -.107E-02 -.565E-03 -.635E-03
   -.857E+01 -.666E+01 -.840E+01   0.945E+01 0.612E+01 0.649E+01   -.728E+00 0.117E+01 0.250E+01   -.188E-02 -.685E-03 -.863E-03
   -.139E+02 0.757E+01 0.628E+01   0.125E+02 -.773E+01 -.630E+01   0.307E+01 -.918E+00 -.147E+01   0.228E-02 0.553E-03 0.278E-03
   -.183E+00 -.816E+01 0.476E+01   0.736E+00 0.852E+01 -.477E+01   -.105E+01 0.194E+00 -.470E+00   0.246E-02 -.175E-03 -.801E-04
   -.791E+01 0.537E+01 0.181E+01   0.837E+01 -.507E+01 -.257E+01   -.241E+00 -.938E+00 0.145E+01   -.220E-02 0.396E-03 -.259E-03
   0.572E+01 0.143E+02 -.558E+01   -.504E+01 -.136E+02 0.558E+01   -.113E+01 -.182E+01 -.352E+00   0.217E-02 0.451E-03 -.652E-03
   0.339E+01 -.789E+01 0.183E+01   -.340E+01 0.618E+01 -.321E+01   0.979E-01 0.219E+01 0.181E+01   -.190E-02 -.327E-04 0.114E-02
   0.436E+01 0.479E+01 -.770E+00   -.445E+01 -.434E+01 0.134E+01   -.708E+00 -.159E+01 -.852E+00   -.434E-03 -.632E-03 -.854E-03
   0.246E+02 -.122E+02 0.367E+01   -.245E+02 0.129E+02 -.268E+01   -.221E+01 -.151E+00 -.162E+01   -.358E-03 0.131E-03 0.470E-03
   -.506E+01 -.171E+02 0.151E+02   0.484E+01 0.155E+02 -.129E+02   0.123E+01 0.250E+01 -.324E+01   0.281E-02 0.192E-03 0.718E-03
 -----------------------------------------------------------------------------------------------
   -.673E+01 0.173E+00 -.649E+01   0.995E-13 -.639E-13 0.110E-12   0.672E+01 -.183E+00 0.646E+01   0.140E-03 0.205E-03 -.346E-03
 
 
 POSITION                                       TOTAL-FORCE (eV/Angst)
 -----------------------------------------------------------------------------------
      0.59533      2.18354      0.53992        -1.045228     -0.354711     -1.110168
      1.78108      7.08059      5.14723        -0.245669      1.672657     -1.918614
      6.14180      8.08135      9.41478        -0.110124      0.876138     -0.195726
      2.58007      4.33663      3.10611        -0.542201      0.600132      1.832743
      1.54899      2.29290      3.80139         0.524240      0.038401     -0.288993
      6.19166      3.02519      2.14914        -0.615306      0.179770      1.222577
      5.68132      4.18646      4.49710         0.253331     -0.096447     -0.391466
      8.91703      3.40412      9.28940         0.094616      1.154038      0.188604
      8.39999      3.38657      1.29206         0.910707      0.760242      0.290488
      8.99455      5.68232      5.46831         0.670885     -0.620681     -1.874024
      8.43576      6.45805      3.01352        -0.506998      1.361535      0.085677
      4.20267      2.72175      3.61308         0.033197     -0.649305     -1.449981
      7.36807      0.03676      4.78579        -0.227816     -1.231731     -1.023694
      5.87794      9.60309      1.32205        -0.522670      0.881660     -0.092403
      8.12941      8.78062      0.28802         1.484994      1.779286     -0.680228
      1.41794      8.97162      0.67748         0.305605     -1.237880      0.296430
      0.67401      8.40404      6.77274         0.736589      0.716467     -0.185176
      6.63221      0.21791      9.36056        -0.744519     -0.901360     -0.106289
      9.23158      5.58558      1.05653         0.304861     -0.506224     -0.096737
      5.66499      0.82702      3.31696         0.454133     -0.648026     -0.243237
      9.82886      7.91715      1.66651         0.202910     -0.472469      0.164155
      6.01013      6.32004      7.92769         0.216097      0.079913      0.578862
      9.05138      9.35764      5.93782        -0.639621     -0.866518     -0.469016
      9.78837      5.76247      8.80479         0.198422     -1.084145      1.043797
      6.64414      8.44590      7.07809        -0.119074      0.013151     -0.143708
      6.78694      7.51144      1.50565        -0.657961     -0.454933      0.440660
      5.09583      7.35518      5.69159        -0.300298      0.148829      0.283349
      8.68527      9.49872      8.22790        -0.885443      0.312470      0.440832
      4.70984      1.53005      9.25800         0.471507      0.065150      0.764323
      4.12049      7.58006      8.13046        -0.444672     -0.053849      0.723683
      9.72782      0.05443      1.45192        -0.653626     -0.688015      0.168502
      4.27885      9.34660      9.65813        -0.530403     -0.236788      2.047047
      1.52299      8.72710      3.09394        -0.244329      0.457135      0.800329
      5.95112      8.55979      3.52395        -0.750602      1.820852      0.265141
      6.34297      2.81507      7.73682         0.096621      0.218827      0.864090
      5.13775      4.60415      6.69093        -0.610405     -0.179510      0.875690
      1.44674      4.80946      5.15808        -0.701233     -0.782862      1.262256
      9.76567      3.85529      6.84658         1.307493      0.533303      0.618059
      5.17380      6.29389      0.33422        -1.076635     -0.283413     -0.738224
      1.53793      0.79587      2.17047         0.027232     -1.805415      0.344676
      0.99799      4.21568      9.72062        -0.687992      0.756820      0.105362
      3.24737      6.08981      6.57075         0.646756     -1.255834      0.243368
      7.60590      7.71463      4.95621         0.714136      1.005100      0.523063
      7.88975      6.69811      9.63934         0.445629     -1.464515     -0.279566
      2.13800      6.60123      2.42219         0.137670      0.199662      0.711836
      4.47852      1.44269      1.47544         0.266298     -0.235980     -0.698448
      3.63985      8.37073      4.10103        -1.234898      0.568429      0.175556
      2.00809      6.24919      8.61320         0.875365      0.185353     -0.507384
      4.61151      4.93998      2.25813         1.352913     -0.612077      0.038856
      9.85882      3.46799      4.40610        -0.464152      1.455460      0.369264
      2.08647      4.09911      7.48154        -0.478428      1.689339     -1.066347
      3.66703      5.94692      4.23387         1.521184      0.679670      0.634540
      0.87171      2.37743      8.32477        -1.795282     -0.738057      0.155569
      2.69966      0.70985      0.05177        -0.354707      0.558864     -0.254341
      8.47068      1.89661      7.71549         1.333316     -0.184582     -0.602099
      1.15809      2.40726      5.95784         0.704053     -0.113624      0.717954
      6.71924      2.40881     10.16134         0.279941      0.046076     -1.011579
      0.30662      5.68898      3.42513        -0.046737     -0.270475     -0.362943
      1.48370     10.15220      5.24655         0.692757      0.151444     -0.347796
      8.68368      7.22624      7.24069        -0.827608      1.224824      0.255837
      6.51067      4.70419      9.52493         1.007023     -1.285268     -1.352026
     10.15679      7.98908      9.08517         0.101689      0.462957      0.868895
      4.74619     10.08655      7.67164         1.024385     -0.189651     -2.915307
      9.83974     10.17444      3.81584         0.335045     -0.074144     -0.218782
      3.43515      9.39332      1.72478         0.732426     -0.715673     -0.114971
      3.98399      4.91586      8.78889         0.628795      1.529600     -0.059630
      2.14229      8.80268      8.51257        -0.264081     -0.348639      0.988129
      9.60283      2.04121      2.66992         0.638633     -0.473577     -0.096208
      4.98650      9.92680      5.29757         0.440849     -0.419063      0.777221
      4.44333      7.27002      2.31029        -0.395520      0.666819     -1.015963
      9.26098      1.50939      5.49591        -0.271320     -0.372445      0.030087
      6.92771      5.23648      1.57044        -0.074587     -0.516650     -0.676803
      3.13538      7.36269      0.28274         0.757511      0.525815     -0.307800
      7.66142      2.07963      3.92092        -0.462798      0.698934     -0.329237
      7.55404      1.06639      1.81397         0.125016     -0.591000     -0.571418
      3.41423      3.74851      5.42991        -0.386271      0.905293      0.212366
      6.92959      0.48501      6.93343        -1.133856      0.227280      0.523516
      4.07645      2.75731      7.43373         0.291660     -1.056686     -0.795333
      7.97964      5.03553      7.70687        -0.810005     -1.105398      0.823423
      4.79548      3.59141      0.32800        -0.763489     -0.109944      0.710142
      2.91399      2.93333      9.34919        -0.967014     -0.542342      1.818336
      0.26533      0.43906      7.16498         0.348334      0.837297      0.456035
      0.48122      6.23808      6.81432         1.579137     -2.260934      0.215049
      5.77934      1.99729      5.46649        -0.796602      0.292916      0.401892
      0.50261      0.16328      9.43146         0.111693      0.275520     -0.651277
      8.01769      9.02766      2.75769         1.091745      0.605728      0.274756
      7.73022      3.39715      5.93134        -0.779673      0.538608     -0.916963
      1.02792      6.52592      0.43869        -0.937200     -0.195617      0.159011
      3.35836      1.40755      5.63099         0.030289      0.495744      1.054342
      2.57041      0.82590      7.78623         0.158709     -0.321232     -0.273985
      6.81158      5.76543      5.80040         0.060960     -0.710715      0.163279
      9.89075      7.80373      4.23092         0.147351      0.623284      0.596753
      2.57940      2.72524      1.63110         1.734526     -1.071908     -1.494493
      3.09156      8.74915      6.39740        -0.491334      0.554463     -0.480064
      7.84279      4.37845      3.58879         0.210157     -0.637962      0.693103
      3.35992      0.52770      3.60364        -0.444140     -1.145759     -0.359926
      8.67504      1.04646      9.89562         0.092238      0.479817      0.434882
      6.15754      6.31432      3.66081        -0.796496     -1.141524     -0.282125
      0.65374      3.98757      1.96120        -2.086018      0.529198     -0.624792
      2.75614      4.86603      0.82362         1.013411      0.875293     -1.059104
 -----------------------------------------------------------------------------------
    total drift:                               -0.003865     -0.010365     -0.022362


--------------------------------------------------------------------------------------------------------



  FREE ENERGIE OF THE ION-ELECTRON SYSTEM (eV)
  ---------------------------------------------------
  free  energy   TOTEN  =      -425.02492389 eV

  energy  without entropy=     -424.95754161  energy(sigma->0) =     -424.99123275
 


--------------------------------------------------------------------------------------------------------


    POTLOK:  cpu time    0.0899: real time    0.0902


--------------------------------------------------------------------------------------------------------


     LOOP+:  cpu time   35.1325: real time   35.7549
    4ORBIT:  cpu time    0.0000: real time    0.0000

 total amount of memory used by VASP MPI-rank0    53951. kBytes
=======================================================================

   base      :      30000. kBytes
   nonlr-proj:       8283. kBytes
   fftplans  :       1377. kBytes
   grid      :       7520. kBytes
   one-center:        614. kBytes
   wavefun   :       6157. kBytes
 
  
  
 General timing and accounting informations for this job:
 ========================================================
  
                  Total CPU time used (sec):       36.252
                            User time (sec):       34.890
                          System time (sec):        1.362
                         Elapsed time (sec):       38.988
  
                   Maximum memory used (kb):      173580.
                   Average memory used (kb):           0.
  
                          Minor page faults:       104917
                          Major page faults:            0
                 Voluntary context switches:          868
