BEGIN_CFG
 Size
    100
 Supercell
        10.211495      0.000000      0.000000
         0.000000     10.211495      0.000000
         0.000000      0.000000     10.211495
 AtomData:  id type       cartes_x      cartes_y      cartes_z           fx          fy          fz
             1    0       0.595330      2.183540      0.539920    -1.045228   -0.354711   -1.110168
             2    0       1.781080      7.080590      5.147230    -0.245669    1.672657   -1.918614
             3    0       6.141800      8.081350      9.414780    -0.110124    0.876138   -0.195726
             4    0       2.580070      4.336630      3.106110    -0.542201    0.600132    1.832743
             5    0       1.548990      2.292900      3.801390     0.524240    0.038401   -0.288993
             6    0       6.191660      3.025190      2.149140    -0.615306    0.179770    1.222577
             7    0       5.681320      4.186460      4.497100     0.253331   -0.096447   -0.391466
             8    0       8.917030      3.404120      9.289400     0.094616    1.154038    0.188604
             9    0       8.399990      3.386570      1.292060     0.910707    0.760242    0.290488
            10    0       8.994550      5.682320      5.468310     0.670885   -0.620681   -1.874024
            11    0       8.435760      6.458050      3.013520    -0.506998    1.361535    0.085677
            12    0       4.202670      2.721750      3.613080     0.033197   -0.649305   -1.449981
            13    0       7.368070      0.036760      4.785790    -0.227816   -1.231731   -1.023694
            14    0       5.877940      9.603090      1.322050    -0.522670    0.881660   -0.092403
            15    0       8.129410      8.780620      0.288020     1.484994    1.779286   -0.680228
            16    0       1.417940      8.971620      0.677480     0.305605   -1.237880    0.296430
            17    0       0.674010      8.404040      6.772740     0.736589    0.716467   -0.185176
            18    0       6.632210      0.217910      9.360560    -0.744519   -0.901360   -0.106289
            19    0       9.231580      5.585580      1.056530     0.304861   -0.506224   -0.096737
            20    0       5.664990      0.827020      3.316960     0.454133   -0.648026   -0.243237
            21    0       9.828860      7.917150      1.666510     0.202910   -0.472469    0.164155
            22    0       6.010130      6.320040      7.927690     0.216097    0.079913    0.578862
            23    0       9.051380      9.357640      5.937820    -0.639621   -0.866518   -0.469016
            24    0       9.788370      5.762470      8.804790     0.198422   -1.084145    1.043797
            25    0       6.644140      8.445900      7.078090    -0.119074    0.013151   -0.143708
            26    0       6.786940      7.511440      1.505650    -0.657961   -0.454933    0.440660
            27    0       5.095830      7.355180      5.691590    -0.300298    0.148829    0.283349
            28    0       8.685270      9.498720      8.227900    -0.885443    0.312470    0.440832
            29    0       4.709840      1.530050      9.258000     0.471507    0.065150    0.764323
            30    0       4.120490      7.580060      8.130460    -0.444672   -0.053849    0.723683
            31    0       9.727820      0.054430      1.451920    -0.653626   -0.688015    0.168502
            32    0       4.278850      9.346600      9.658130    -0.530403   -0.236788    2.047047
            33    0       1.522990      8.727100      3.093940    -0.244329    0.457135    0.800329
            34    0       5.951120      8.559790      3.523950    -0.750602    1.820852    0.265141
            35    0       6.342970      2.815070      7.736820     0.096621    0.218827    0.864090
            36    0       5.137750      4.604150      6.690930    -0.610405   -0.179510    0.875690
            37    0       1.446740      4.809460      5.158080    -0.701233   -0.782862    1.262256
            38    0       9.765670      3.855290      6.846580     1.307493    0.533303    0.618059
            39    0       5.173800      6.293890      0.334220    -1.076635   -0.283413   -0.738224
            40    0       1.537930      0.795870      2.170470     0.027232   -1.805415    0.344676
            41    0       0.997990      4.215680      9.720620    -0.687992    0.756820    0.105362
            42    0       3.247370      6.089810      6.570750     0.646756   -1.255834    0.243368
            43    0       7.605900      7.714630      4.956210     0.714136    1.005100    0.523063
            44    0       7.889750      6.698110      9.639340     0.445629   -1.464515   -0.279566
            45    0       2.138000      6.601230      2.422190     0.137670    0.199662    0.711836
            46    0       4.478520      1.442690      1.475440     0.266298   -0.235980   -0.698448
            47    0       3.639850      8.370730      4.101030    -1.234898    0.568429    0.175556
            48    0       2.008090      6.249190      8.613200     0.875365    0.185353   -0.507384
            49    0       4.611510      4.939980      2.258130     1.352913   -0.612077    0.038856
            50    0       9.858820      3.467990      4.406100    -0.464152    1.455460    0.369264
            51    0       2.086470      4.099110      7.481540    -0.478428    1.689339   -1.066347
            52    0       3.667030      5.946920      4.233870     1.521184    0.679670    0.634540
            53    0       0.871710      2.377430      8.324770    -1.795282   -0.738057    0.155569
            54    0       2.699660      0.709850      0.051770    -0.354707    0.558864   -0.254341
            55    0       8.470680      1.896610      7.715490     1.333316   -0.184582   -0.602099
            56    0       1.158090      2.407260      5.957840     0.704053   -0.113624    0.717954
            57    0       6.719240      2.408810     10.161340     0.279941    0.046076   -1.011579
            58    0       0.306620      5.688980      3.425130    -0.046737   -0.270475   -0.362943
            59    0       1.483700     10.152200      5.246550     0.692757    0.151444   -0.347796
            60    0       8.683680      7.226240      7.240690    -0.827608    1.224824    0.255837
            61    0       6.510670      4.704190      9.524930     1.007023   -1.285268   -1.352026
            62    0      10.156790      7.989080      9.085170     0.101689    0.462957    0.868895
            63    0       4.746190     10.086550      7.671640     1.024385   -0.189651   -2.915307
            64    0       9.839740     10.174440      3.815840     0.335045   -0.074144   -0.218782
            65    0       3.435150      9.393320      1.724780     0.732426   -0.715673   -0.114971
            66    0       3.983990      4.915860      8.788890     0.628795    1.529600   -0.059630
            67    0       2.142290      8.802680      8.512570    -0.264081   -0.348639    0.988129
            68    0       9.602830      2.041210      2.669920     0.638633   -0.473577   -0.096208
            69    0       4.986500      9.926800      5.297570     0.440849   -0.419063    0.777221
            70    0       4.443330      7.270020      2.310290    -0.395520    0.666819   -1.015963
            71    0       9.260980      1.509390      5.495910    -0.271320   -0.372445    0.030087
            72    0       6.927710      5.236480      1.570440    -0.074587   -0.516650   -0.676803
            73    0       3.135380      7.362690      0.282740     0.757511    0.525815   -0.307800
            74    0       7.661420      2.079630      3.920920    -0.462798    0.698934   -0.329237
            75    0       7.554040      1.066390      1.813970     0.125016   -0.591000   -0.571418
            76    0       3.414230      3.748510      5.429910    -0.386271    0.905293    0.212366
            77    0       6.929590      0.485010      6.933430    -1.133856    0.227280    0.523516
            78    0       4.076450      2.757310      7.433730     0.291660   -1.056686   -0.795333
            79    0       7.979640      5.035530      7.706870    -0.810005   -1.105398    0.823423
            80    0       4.795480      3.591410      0.328000    -0.763489   -0.109944    0.710142
            81    0       2.913990      2.933330      9.349190    -0.967014   -0.542342    1.818336
            82    0       0.265330      0.439060      7.164980     0.348334    0.837297    0.456035
            83    0       0.481220      6.238080      6.814320     1.579137   -2.260934    0.215049
            84    0       5.779340      1.997290      5.466490    -0.796602    0.292916    0.401892
            85    0       0.502610      0.163280      9.431460     0.111693    0.275520   -0.651277
            86    0       8.017690      9.027660      2.757690     1.091745    0.605728    0.274756
            87    0       7.730220      3.397150      5.931340    -0.779673    0.538608   -0.916963
            88    0       1.027920      6.525920      0.438690    -0.937200   -0.195617    0.159011
            89    0       3.358360      1.407550      5.630990     0.030289    0.495744    1.054342
            90    0       2.570410      0.825900      7.786230     0.158709   -0.321232   -0.273985
            91    0       6.811580      5.765430      5.800400     0.060960   -0.710715    0.163279
            92    0       9.890750      7.803730      4.230920     0.147351    0.623284    0.596753
            93    0       2.579400      2.725240      1.631100     1.734526   -1.071908   -1.494493
            94    0       3.091560      8.749150      6.397400    -0.491334    0.554463   -0.480064
            95    0       7.842790      4.378450      3.588790     0.210157   -0.637962    0.693103
            96    0       3.359920      0.527700      3.603640    -0.444140   -1.145759   -0.359926
            97    0       8.675040      1.046460      9.895620     0.092238    0.479817    0.434882
            98    0       6.157540      6.314320      3.660810    -0.796496   -1.141524   -0.282125
            99    0       0.653740      3.987570      1.961200    -2.086018    0.529198   -0.624792
           100    0       2.756140      4.866030      0.823620     1.013411    0.875293   -1.059104
 Energy
       -425.024923890000
 PlusStress:  xx          yy          zz          yz          xz          xy
       404.56544   415.71151   399.49564     4.52409     1.85228     6.65412
 Feature   EFS_by	VASP
END_CFG

