<?xml version="1.0" encoding="ISO-8859-1"?>
<modeling>
 <generator>
  <i name="program" type="string">vasp </i>
  <i name="version" type="string">5.4.4.18Apr17-6-g9f103f2a35  </i>
  <i name="subversion" type="string">(build Sep 16 2020 16:20:45) complex            parallel </i>
  <i name="platform" type="string">LinuxIFC </i>
  <i name="date" type="string">2021 08 10 </i>
  <i name="time" type="string">00:47:59 </i>
 </generator>
 <incar>
  <i type="string" name="PREC">normal</i>
  <i type="string" name="ALGO"> Very Fast</i>
  <i type="int" name="ISPIN">     2</i>
  <i type="int" name="NELM">    60</i>
  <i type="int" name="NELMIN">     4</i>
  <i name="EDIFF">      0.00001000</i>
  <i type="int" name="ISYM">     0</i>
  <i type="string" name="LREAL"> auto</i>
  <i type="int" name="ISMEAR">     0</i>
  <i name="SIGMA">      0.05000000</i>
  <i type="logical" name="LWAVE"> F  </i>
  <i type="logical" name="LCHARG"> F  </i>
  <v type="int" name="KPOINT_BSE">    -1     0     0     0</v>
  <i type="int" name="NELM">    60</i>
 </incar>
 <structure name="primitive_cell" >
  <crystal>
   <varray name="basis" >
    <v>      10.21149500       0.00000000       0.00000000 </v>
    <v>       0.00000000      10.21149500       0.00000000 </v>
    <v>       0.00000000       0.00000000      10.21149500 </v>
   </varray>
   <i name="volume">   1064.79986425 </i>
   <varray name="rec_basis" >
    <v>       0.09792885       0.00000000       0.00000000 </v>
    <v>       0.00000000       0.09792885       0.00000000 </v>
    <v>       0.00000000       0.00000000       0.09792885 </v>
   </varray>
  </crystal>
  <varray name="positions" >
   <v>       0.05830000       0.21383200       0.05287360 </v>
   <v>       0.06402000       0.39049800       0.19205800 </v>
   <v>       0.09773240       0.41283700      -0.04807100 </v>
   <v>       0.25259800       0.26688000       0.15973200 </v>
   <v>       0.15060800       0.07793830       0.21255200 </v>
   <v>       0.04921960       0.01599000      -0.07638800 </v>
   <v>       0.08536540       0.23281900      -0.18476500 </v>
   <v>      -0.05960600       0.19989300       0.26146200 </v>
   <v>      -0.04736600       0.00533000       0.14218500 </v>
   <v>      -0.15046300       0.10247900      -0.03093300 </v>
   <v>       0.26437500       0.06951500       0.00507000 </v>
   <v>      -0.12676500       0.33336200      -0.09030000 </v>
   <v>      -0.17739900       0.33164300       0.12653000 </v>
   <v>       0.28536400       0.28725800      -0.08444500 </v>
   <v>       0.15169100       0.22454100       0.37226600 </v>
   <v>       0.26990600       0.47652500       0.08065630 </v>
   <v>       0.13885700      -0.12142000       0.06634520 </v>
   <v>      -0.26024200       0.10443000       0.17764000 </v>
   <v>      -0.09596200      -0.45301100       0.10346500 </v>
   <v>       0.25171700       0.08087940      -0.23750300 </v>
   <v>      -0.17047600       0.18573300      -0.24443100 </v>
   <v>       0.25266300       0.42468100       0.30417800 </v>
   <v>       0.02598300       0.04299660      -0.29834200 </v>
   <v>       0.43857600       0.14128100       0.14448800 </v>
   <v>       0.20432600       0.40142100      -0.26734100 </v>
   <v>      -0.03640600      -0.00362900       0.37368100 </v>
   <v>      -0.34199300       0.23589200      -0.00491160 </v>
   <v>      -0.03453700       0.33961600       0.43148400 </v>
   <v>      -0.04143600      -0.43568800      -0.13775700 </v>
   <v>       0.33640000      -0.08012300       0.16890600 </v>
   <v>       0.10066300      -0.36092400       0.04296030 </v>
   <v>      -0.04365900       0.37754400      -0.32952200 </v>
   <v>      -0.14946100      -0.06980100      -0.19425100 </v>
   <v>       0.46122900       0.14983600      -0.09337500 </v>
   <v>       0.46961600       0.35170300       0.03212020 </v>
   <v>       0.32903300       0.05167690       0.35290000 </v>
   <v>      -0.20389600      -0.14012400       0.02820570 </v>
   <v>       0.20979200      -0.13796400      -0.16637400 </v>
   <v>       0.03002660      -0.44288500       0.33541900 </v>
   <v>       0.14914500      -0.14536500       0.30298600 </v>
   <v>      -0.24972600       0.20365600       0.38397100 </v>
   <v>      -0.03747100      -0.22468300       0.16319900 </v>
   <v>      -0.00535700      -0.21763900      -0.11030000 </v>
   <v>       0.41156300       0.26653800       0.35382500 </v>
   <v>       0.39014800       0.48140500      -0.13931400 </v>
   <v>      -0.23196500       0.42877700       0.35144600 </v>
   <v>       0.19665000      -0.38802400      -0.15651900 </v>
   <v>      -0.35051500       0.02134010      -0.08333100 </v>
   <v>       0.11341000       0.23574000      -0.41655600 </v>
   <v>       0.39920200       0.27002000      -0.27202300 </v>
   <v>      -0.21483700      -0.11593200       0.27005700 </v>
   <v>       0.41902300      -0.08469800      -0.05419000 </v>
   <v>      -0.39365800       0.29625300       0.21046300 </v>
   <v>      -0.21856300       0.49312400      -0.24527500 </v>
   <v>      -0.32157700      -0.48719800       0.15379100 </v>
   <v>       0.20937200      -0.35354900       0.23720200 </v>
   <v>      -0.36241800       0.46067600      -0.06723500 </v>
   <v>       0.45160000       0.48376700       0.22113600 </v>
   <v>      -0.09308300       0.14781300      -0.46179200 </v>
   <v>       0.14529700      -0.00580654      -0.48621100 </v>
   <v>       0.14167800       0.47098500      -0.49487500 </v>
   <v>      -0.37884000       0.27567700      -0.24234200 </v>
   <v>      -0.17389600      -0.36757100       0.29511100 </v>
   <v>      -0.22736600      -0.34406200      -0.05603000 </v>
   <v>       0.06600480      -0.17700200      -0.33675300 </v>
   <v>       0.30704400      -0.27898000       0.02768830 </v>
   <v>       0.04712550      -0.38911200      -0.33268100 </v>
   <v>       0.46478900      -0.01223600      -0.24872500 </v>
   <v>      -0.32139300       0.04749630      -0.32101700 </v>
   <v>      -0.42438000      -0.05958020       0.12946700 </v>
   <v>       0.32888000       0.13784000      -0.44856400 </v>
   <v>      -0.24298800       0.33267900      -0.41915100 </v>
   <v>       0.33435200       0.36708700      -0.46825500 </v>
   <v>      -0.27845300       0.00360000       0.46866700 </v>
   <v>      -0.44523400       0.08098950       0.32482600 </v>
   <v>      -0.11360900      -0.08361700      -0.41851600 </v>
   <v>      -0.03141000      -0.23579000       0.41432900 </v>
   <v>       0.35910800      -0.41762500       0.41461800 </v>
   <v>      -0.49333600      -0.38364700       0.03273000 </v>
   <v>       0.35644600      -0.18026400       0.40160900 </v>
   <v>       0.30275300      -0.14320600      -0.37351000 </v>
   <v>       0.31801100      -0.40363200      -0.35653400 </v>
   <v>      -0.11917400      -0.44353700      -0.46449500 </v>
   <v>      -0.33536300      -0.26441300       0.14744700 </v>
   <v>      -0.39854100      -0.20860300      -0.07802100 </v>
   <v>      -0.14961700      -0.29234300      -0.29092800 </v>
   <v>       0.40351500      -0.25769300      -0.20379300 </v>
   <v>      -0.49686600       0.45087900      -0.34476500 </v>
   <v>       0.43513000      -0.28805500       0.22624400 </v>
   <v>      -0.44363500       0.40997500       0.44039600 </v>
   <v>      -0.34934700      -0.17290300      -0.30685100 </v>
   <v>       0.17441900      -0.30660600      -0.49593800 </v>
   <v>      -0.41721400      -0.16175000       0.34509600 </v>
   <v>       0.48832200      -0.02788000      -0.48121500 </v>
   <v>      -0.41143500      -0.38108600      -0.22365000 </v>
   <v>      -0.39699900      -0.38164600       0.35849900 </v>
   <v>      -0.43403600       0.19559200      -0.46467300 </v>
   <v>      -0.25516300      -0.24451500       0.48535600 </v>
   <v>      -0.33295000      -0.43539800      -0.43197300 </v>
   <v>       0.49902900      -0.27971600      -0.44262900 </v>
  </varray>
 </structure>
 <varray name="primitive_index" >
  <v type="int" >        1 </v>
  <v type="int" >       99 </v>
  <v type="int" >       41 </v>
  <v type="int" >       93 </v>
  <v type="int" >       40 </v>
  <v type="int" >       85 </v>
  <v type="int" >       53 </v>
  <v type="int" >       68 </v>
  <v type="int" >       31 </v>
  <v type="int" >       97 </v>
  <v type="int" >       54 </v>
  <v type="int" >        8 </v>
  <v type="int" >        9 </v>
  <v type="int" >       81 </v>
  <v type="int" >        5 </v>
  <v type="int" >      100 </v>
  <v type="int" >       16 </v>
  <v type="int" >       75 </v>
  <v type="int" >       19 </v>
  <v type="int" >       90 </v>
  <v type="int" >       55 </v>
  <v type="int" >        4 </v>
  <v type="int" >       82 </v>
  <v type="int" >       46 </v>
  <v type="int" >       51 </v>
  <v type="int" >       64 </v>
  <v type="int" >       57 </v>
  <v type="int" >       50 </v>
  <v type="int" >       24 </v>
  <v type="int" >       65 </v>
  <v type="int" >       88 </v>
  <v type="int" >       38 </v>
  <v type="int" >       28 </v>
  <v type="int" >       29 </v>
  <v type="int" >       80 </v>
  <v type="int" >       96 </v>
  <v type="int" >       15 </v>
  <v type="int" >       67 </v>
  <v type="int" >       58 </v>
  <v type="int" >       33 </v>
  <v type="int" >       74 </v>
  <v type="int" >       21 </v>
  <v type="int" >       62 </v>
  <v type="int" >       12 </v>
  <v type="int" >       66 </v>
  <v type="int" >       95 </v>
  <v type="int" >       48 </v>
  <v type="int" >       18 </v>
  <v type="int" >       56 </v>
  <v type="int" >       78 </v>
  <v type="int" >       86 </v>
  <v type="int" >       32 </v>
  <v type="int" >        6 </v>
  <v type="int" >       79 </v>
  <v type="int" >       72 </v>
  <v type="int" >       45 </v>
  <v type="int" >       61 </v>
  <v type="int" >       49 </v>
  <v type="int" >       71 </v>
  <v type="int" >       59 </v>
  <v type="int" >       37 </v>
  <v type="int" >       35 </v>
  <v type="int" >       11 </v>
  <v type="int" >       44 </v>
  <v type="int" >       17 </v>
  <v type="int" >       73 </v>
  <v type="int" >       83 </v>
  <v type="int" >       63 </v>
  <v type="int" >       77 </v>
  <v type="int" >       14 </v>
  <v type="int" >       89 </v>
  <v type="int" >       87 </v>
  <v type="int" >       76 </v>
  <v type="int" >       13 </v>
  <v type="int" >       20 </v>
  <v type="int" >       23 </v>
  <v type="int" >       92 </v>
  <v type="int" >       52 </v>
  <v type="int" >       39 </v>
  <v type="int" >       47 </v>
  <v type="int" >       94 </v>
  <v type="int" >       42 </v>
  <v type="int" >       10 </v>
  <v type="int" >       26 </v>
  <v type="int" >        3 </v>
  <v type="int" >       60 </v>
  <v type="int" >       30 </v>
  <v type="int" >       36 </v>
  <v type="int" >       70 </v>
  <v type="int" >        7 </v>
  <v type="int" >       25 </v>
  <v type="int" >        2 </v>
  <v type="int" >       34 </v>
  <v type="int" >       69 </v>
  <v type="int" >       22 </v>
  <v type="int" >       98 </v>
  <v type="int" >       84 </v>
  <v type="int" >       43 </v>
  <v type="int" >       91 </v>
  <v type="int" >       27 </v>
 </varray>
 <kpoints>
  <generation param="Gamma">
   <v type="int" name="divisions">       1        1        1 </v>
   <v name="usershift">      0.00000000       0.00000000       0.00000000 </v>
   <v name="genvec1">      1.00000000       0.00000000       0.00000000 </v>
   <v name="genvec2">      0.00000000       1.00000000       0.00000000 </v>
   <v name="genvec3">      0.00000000       0.00000000       1.00000000 </v>
   <v name="shift">      0.00000000       0.00000000       0.00000000 </v>
  </generation>
  <varray name="kpointlist" >
   <v>       0.00000000       0.00000000       0.00000000 </v>
  </varray>
  <varray name="weights" >
   <v>       1.00000000 </v>
  </varray>
 </kpoints>
 <parameters>
  <separator name="general" >
   <i type="string" name="SYSTEM">unknown system</i>
   <i type="logical" name="LCOMPAT"> F  </i>
  </separator>
  <separator name="electronic" >
   <i type="string" name="PREC">normal</i>
   <i name="ENMAX">    245.34500000</i>
   <i name="ENAUG">    322.06900000</i>
   <i name="EDIFF">      0.00001000</i>
   <i type="int" name="IALGO">    48</i>
   <i type="int" name="IWAVPR">    10</i>
   <i type="int" name="NBANDS">   304</i>
   <i name="NELECT">    400.00000000</i>
   <i type="int" name="TURBO">     0</i>
   <i type="int" name="IRESTART">     0</i>
   <i type="int" name="NREBOOT">     0</i>
   <i type="int" name="NMIN">     0</i>
   <i name="EREF">      0.00000000</i>
   <separator name="electronic smearing" >
    <i type="int" name="ISMEAR">     0</i>
    <i name="SIGMA">      0.05000000</i>
    <i name="KSPACING">      0.50000000</i>
    <i type="logical" name="KGAMMA"> T  </i>
   </separator>
   <separator name="electronic projectors" >
    <i type="logical" name="LREAL"> T  </i>
    <v name="ROPT">     -0.00050000</v>
    <i type="int" name="LMAXPAW">  -100</i>
    <i type="int" name="LMAXMIX">     2</i>
    <i type="logical" name="NLSPLINE"> F  </i>
   </separator>
   <separator name="electronic startup" >
    <i type="int" name="ISTART">     0</i>
    <i type="int" name="ICHARG">     2</i>
    <i type="int" name="INIWAV">     1</i>
   </separator>
   <separator name="electronic spin" >
    <i type="int" name="ISPIN">     2</i>
    <i type="logical" name="LNONCOLLINEAR"> F  </i>
    <v name="MAGMOM">      1.00000000      1.00000000      1.00000000      1.00000000      1.00000000      1.00000000      1.00000000      1.00000000      1.00000000      1.00000000      1.00000000      1.00000000      1.00000000      1.00000000      1.00000000      1.00000000      1.00000000      1.00000000      1.00000000      1.00000000
      1.00000000      1.00000000      1.00000000      1.00000000      1.00000000      1.00000000      1.00000000      1.00000000      1.00000000      1.00000000      1.00000000      1.00000000      1.00000000      1.00000000      1.00000000      1.00000000      1.00000000      1.00000000      1.00000000      1.00000000
      1.00000000      1.00000000      1.00000000      1.00000000      1.00000000      1.00000000      1.00000000      1.00000000      1.00000000      1.00000000      1.00000000      1.00000000      1.00000000      1.00000000      1.00000000      1.00000000      1.00000000      1.00000000      1.00000000      1.00000000
      1.00000000      1.00000000      1.00000000      1.00000000      1.00000000      1.00000000      1.00000000      1.00000000      1.00000000      1.00000000      1.00000000      1.00000000      1.00000000      1.00000000      1.00000000      1.00000000      1.00000000      1.00000000      1.00000000      1.00000000
      1.00000000      1.00000000      1.00000000      1.00000000      1.00000000      1.00000000      1.00000000      1.00000000      1.00000000      1.00000000      1.00000000      1.00000000      1.00000000      1.00000000      1.00000000      1.00000000      1.00000000      1.00000000      1.00000000      1.00000000
</v>
    <i name="NUPDOWN">     -1.00000000</i>
    <i type="logical" name="LSORBIT"> F  </i>
    <v name="SAXIS">      0.00000000      0.00000000      1.00000000</v>
    <i type="logical" name="LSPIRAL"> F  </i>
    <v name="QSPIRAL">      0.00000000      0.00000000      0.00000000</v>
    <i type="logical" name="LZEROZ"> F  </i>
   </separator>
   <separator name="electronic exchange-correlation" >
    <i type="logical" name="LASPH"> F  </i>
    <i type="logical" name="LMETAGGA"> F  </i>
   </separator>
   <separator name="electronic convergence" >
    <i type="int" name="NELM">    60</i>
    <i type="int" name="NELMDL">   -12</i>
    <i type="int" name="NELMIN">     4</i>
    <i name="ENINI">    245.34500000</i>
    <separator name="electronic convergence detail" >
     <i type="logical" name="LDIAG"> T  </i>
     <i type="logical" name="LSUBROT"> F  </i>
     <i name="WEIMIN">      0.00000000</i>
     <i name="EBREAK">      0.00000001</i>
     <i name="DEPER">      0.30000000</i>
     <i type="int" name="NRMM">     4</i>
     <i name="TIME">      0.40000000</i>
    </separator>
   </separator>
   <separator name="electronic mixer" >
    <i name="AMIX">      0.40000000</i>
    <i name="BMIX">      1.00000000</i>
    <i name="AMIN">      0.10000000</i>
    <i name="AMIX_MAG">      1.60000000</i>
    <i name="BMIX_MAG">      1.00000000</i>
    <separator name="electronic mixer details" >
     <i type="int" name="IMIX">     4</i>
     <i type="logical" name="MIXFIRST"> F  </i>
     <i type="int" name="MAXMIX">   -45</i>
     <i name="WC">    100.00000000</i>
     <i type="int" name="INIMIX">     1</i>
     <i type="int" name="MIXPRE">     1</i>
     <i type="int" name="MREMOVE">     5</i>
    </separator>
   </separator>
   <separator name="electronic dipolcorrection" >
    <i type="logical" name="LDIPOL"> F  </i>
    <i type="logical" name="LMONO"> F  </i>
    <i type="int" name="IDIPOL">     0</i>
    <i name="EPSILON">      1.00000000</i>
    <v name="DIPOL">   -100.00000000   -100.00000000   -100.00000000</v>
    <i name="EFIELD">      0.00000000</i>
   </separator>
  </separator>
  <separator name="grids" >
   <i type="int" name="NGX">    40</i>
   <i type="int" name="NGY">    40</i>
   <i type="int" name="NGZ">    40</i>
   <i type="int" name="NGXF">    80</i>
   <i type="int" name="NGYF">    80</i>
   <i type="int" name="NGZF">    80</i>
   <i type="logical" name="ADDGRID"> F  </i>
  </separator>
  <separator name="ionic" >
   <i type="int" name="NSW">     0</i>
   <i type="int" name="IBRION">    -1</i>
   <i type="int" name="MDALGO">     0</i>
   <i type="int" name="ISIF">     2</i>
   <i name="PSTRESS">      0.00000000</i>
   <i name="EDIFFG">      0.00010000</i>
   <i type="int" name="NFREE">     0</i>
   <i name="POTIM">      0.50000000</i>
   <i name="SMASS">     -3.00000000</i>
   <i name="SCALEE">      1.00000000</i>
  </separator>
  <separator name="ionic md" >
   <i name="TEBEG">      0.00010000</i>
   <i name="TEEND">      0.00010000</i>
   <i type="int" name="NBLOCK">     1</i>
   <i type="int" name="KBLOCK">     1</i>
   <i type="int" name="NPACO">   256</i>
   <i name="APACO">     16.00000000</i>
  </separator>
  <separator name="symmetry" >
   <i type="int" name="ISYM">     0</i>
   <i name="SYMPREC">      0.00001000</i>
  </separator>
  <separator name="dos" >
   <i type="int" name="LORBIT">     0</i>
   <v name="RWIGS">     -1.00000000</v>
   <i type="int" name="NEDOS">   301</i>
   <i name="EMIN">     10.00000000</i>
   <i name="EMAX">    -10.00000000</i>
   <i name="EFERMI">      0.00000000</i>
  </separator>
  <separator name="writing" >
   <i type="int" name="NWRITE">     2</i>
   <i type="logical" name="LWAVE"> F  </i>
   <i type="logical" name="LDOWNSAMPLE"> F  </i>
   <i type="logical" name="LCHARG"> F  </i>
   <i type="logical" name="LPARD"> F  </i>
   <i type="logical" name="LVTOT"> F  </i>
   <i type="logical" name="LVHAR"> F  </i>
   <i type="logical" name="LELF"> F  </i>
   <i type="logical" name="LOPTICS"> F  </i>
   <v name="STM">      0.00000000      0.00000000      0.00000000      0.00000000      0.00000000      0.00000000      0.00000000</v>
  </separator>
  <separator name="performance" >
   <i type="int" name="NPAR">    16</i>
   <i type="int" name="NSIM">     4</i>
   <i type="int" name="NBLK">    -1</i>
   <i type="logical" name="LPLANE"> T  </i>
   <i type="logical" name="LSCALAPACK"> T  </i>
   <i type="logical" name="LSCAAWARE"> F  </i>
   <i type="logical" name="LSCALU"> F  </i>
   <i type="logical" name="LASYNC"> F  </i>
   <i type="logical" name="LORBITALREAL"> F  </i>
  </separator>
  <separator name="miscellaneous" >
   <i type="int" name="IDIOT">     3</i>
   <i type="int" name="ISPECIAL">     0</i>
   <i type="logical" name="LMUSIC"> F  </i>
   <v name="POMASS">     28.08500000</v>
   <v name="DARWINR">      0.00000000</v>
   <v name="DARWINV">      1.00000000</v>
   <i type="logical" name="LCORR"> T  </i>
  </separator>
  <i type="logical" name="GGA_COMPAT"> T  </i>
  <i type="logical" name="LBERRY"> F  </i>
  <i type="int" name="ICORELEVEL">     0</i>
  <i type="logical" name="LDAU"> F  </i>
  <i type="int" name="I_CONSTRAINED_M">     0</i>
  <separator name="electronic exchange-correlation" >
   <i type="string" name="GGA">--</i>
   <i type="int" name="VOSKOWN">     0</i>
   <i type="logical" name="LHFCALC"> F  </i>
   <i type="string" name="PRECFOCK"></i>
   <i type="logical" name="LSYMGRAD"> F  </i>
   <i type="logical" name="LHFONE"> F  </i>
   <i type="logical" name="LRHFCALC"> F  </i>
   <i type="logical" name="LTHOMAS"> F  </i>
   <i type="logical" name="LMODELHF"> F  </i>
   <i name="ENCUT4O">     -1.00000000</i>
   <i type="int" name="EXXOEP">     0</i>
   <i type="int" name="FOURORBIT">     0</i>
   <i name="AEXX">      0.00000000</i>
   <i name="HFALPHA">      0.00000000</i>
   <i name="MCALPHA">      0.00000000</i>
   <i name="ALDAX">      1.00000000</i>
   <i name="AGGAX">      1.00000000</i>
   <i name="ALDAC">      1.00000000</i>
   <i name="AGGAC">      1.00000000</i>
   <i type="int" name="NKREDX">     1</i>
   <i type="int" name="NKREDY">     1</i>
   <i type="int" name="NKREDZ">     1</i>
   <i type="logical" name="SHIFTRED"> F  </i>
   <i type="logical" name="ODDONLY"> F  </i>
   <i type="logical" name="EVENONLY"> F  </i>
   <i type="int" name="LMAXFOCK">     0</i>
   <i type="int" name="NMAXFOCKAE">     0</i>
   <i type="logical" name="LFOCKAEDFT"> F  </i>
   <i name="HFSCREEN">      0.00000000</i>
   <i name="HFSCREENC">      0.00000000</i>
   <i type="int" name="NBANDSGWLOW">     0</i>
  </separator>
  <separator name="vdW DFT" >
   <i type="logical" name="LUSE_VDW"> F  </i>
   <i name="Zab_VDW">     -0.84910000</i>
   <i name="PARAM1">      0.12340000</i>
   <i name="PARAM2">      1.00000000</i>
   <i name="PARAM3">      0.00000000</i>
  </separator>
  <separator name="model GW" >
   <i type="int" name="MODEL_GW">     0</i>
   <i name="MODEL_EPS0">      6.38879919</i>
   <i name="MODEL_ALPHA">      1.00000000</i>
  </separator>
  <separator name="linear response parameters" >
   <i type="logical" name="LEPSILON"> F  </i>
   <i type="logical" name="LRPA"> F  </i>
   <i type="logical" name="LNABLA"> F  </i>
   <i type="logical" name="LVEL"> F  </i>
   <i type="int" name="KINTER">     0</i>
   <i name="CSHIFT">      0.10000000</i>
   <i name="OMEGAMAX">     -1.00000000</i>
   <i name="DEG_THRESHOLD">      0.00200000</i>
   <i name="RTIME">     -0.10000000</i>
   <i name="WPLASMAI">      0.00000000</i>
   <v name="DFIELD">      0.00000000      0.00000000      0.00000000</v>
   <v name="WPLASMA">      0.00000000      0.00000000      0.00000000      0.00000000      0.00000000      0.00000000      0.00000000      0.00000000      0.00000000</v>
  </separator>
  <separator name="orbital magnetization" >
   <i type="logical" name="NUCIND"> F  </i>
   <v name="MAGPOS">      0.00000000      0.00000000      0.00000000</v>
   <i type="logical" name="LNICSALL"> T  </i>
   <i type="logical" name="ORBITALMAG"> F  </i>
   <i type="logical" name="LMAGBLOCH"> F  </i>
   <i type="logical" name="LCHIMAG"> F  </i>
   <i type="logical" name="LGAUGE"> T  </i>
   <i type="int" name="MAGATOM">     0</i>
   <v name="MAGDIPOL">      0.00000000      0.00000000      0.00000000</v>
   <v name="AVECCONST">      0.00000000      0.00000000      0.00000000</v>
  </separator>
  <separator name="response functions" >
   <i type="logical" name="LADDER"> F  </i>
   <i type="logical" name="LRPAFORCE"> F  </i>
   <i type="logical" name="LFXC"> F  </i>
   <i type="logical" name="LHARTREE"> T  </i>
   <i type="int" name="IBSE">     0</i>
   <v type="int" name="KPOINT">    -1     0     0     0</v>
   <i type="logical" name="LTCTE"> F  </i>
   <i type="logical" name="LTETE"> F  </i>
   <i type="logical" name="LTRIPLET"> F  </i>
   <i type="logical" name="LFXCEPS"> F  </i>
   <i type="logical" name="LFXHEG"> F  </i>
   <i type="int" name="NATURALO">     2</i>
   <i type="logical" name="L2ORDER"> F  </i>
   <i type="logical" name="LMP2LT"> F  </i>
   <i type="logical" name="LUSEW"> F  </i>
   <i name="ENCUTGW">     -2.00000000</i>
   <i name="ENCUTGWSOFT">     -2.00000000</i>
   <i name="ENCUTLF">     -1.00000000</i>
   <i type="int" name="LMAXMP2">    -1</i>
   <i name="SCISSOR">      0.00000000</i>
   <i type="int" name="NOMEGA">     0</i>
   <i type="int" name="NOMEGAR">     0</i>
   <i type="int" name="NBANDSGW">    -1</i>
   <i type="int" name="NBANDSO">    -1</i>
   <i type="int" name="NBANDSV">    -1</i>
   <i type="int" name="NELM">    60</i>
   <i type="int" name="NELMHF">     1</i>
   <i type="int" name="DIM">     3</i>
   <i type="int" name="ANTIRES">     0</i>
   <i name="OMEGAMAX">    -30.00000000</i>
   <i name="OMEGAMIN">    -30.00000000</i>
   <i name="OMEGATL">   -200.00000000</i>
   <i type="int" name="OMEGAGRID">   140</i>
   <i name="CSHIFT">     -0.10000000</i>
   <i type="logical" name="SELFENERGY"> F  </i>
   <i type="logical" name="LSPECTRAL"> F  </i>
   <i type="logical" name="LSPECTRALGW"> F  </i>
   <i type="logical" name="LSINGLES"> F  </i>
   <i type="logical" name="LFERMIGW"> F  </i>
   <i type="logical" name="ODDONLYGW"> F  </i>
   <i type="logical" name="EVENONLYGW"> F  </i>
   <i type="int" name="NKREDLFX">     1</i>
   <i type="int" name="NKREDLFY">     1</i>
   <i type="int" name="NKREDLFZ">     1</i>
   <i type="int" name="MAXMEM">  2800</i>
   <i type="int" name="TELESCOPE">     0</i>
   <i type="int" name="TAUPAR">     1</i>
   <i type="int" name="OMEGAPAR">    -1</i>
   <i name="LAMBDA">      1.00000000</i>
  </separator>
  <separator name="External order field" >
   <i name="OFIELD_KAPPA">      0.00000000</i>
   <v name="OFIELD_K">      0.00000000      0.00000000      0.00000000</v>
   <i name="OFIELD_Q6_NEAR">      0.00000000</i>
   <i name="OFIELD_Q6_FAR">      0.00000000</i>
   <i name="OFIELD_A">      0.00000000</i>
  </separator>
 </parameters>
 <atominfo>
  <atoms>     100 </atoms>
  <types>       1 </types>
  <array name="atoms" >
   <dimension dim="1">ion</dimension>
   <field type="string">element</field>
   <field type="int">atomtype</field>
   <set>
    <rc><c>Si</c><c>   1</c></rc>
    <rc><c>Si</c><c>   1</c></rc>
    <rc><c>Si</c><c>   1</c></rc>
    <rc><c>Si</c><c>   1</c></rc>
    <rc><c>Si</c><c>   1</c></rc>
    <rc><c>Si</c><c>   1</c></rc>
    <rc><c>Si</c><c>   1</c></rc>
    <rc><c>Si</c><c>   1</c></rc>
    <rc><c>Si</c><c>   1</c></rc>
    <rc><c>Si</c><c>   1</c></rc>
    <rc><c>Si</c><c>   1</c></rc>
    <rc><c>Si</c><c>   1</c></rc>
    <rc><c>Si</c><c>   1</c></rc>
    <rc><c>Si</c><c>   1</c></rc>
    <rc><c>Si</c><c>   1</c></rc>
    <rc><c>Si</c><c>   1</c></rc>
    <rc><c>Si</c><c>   1</c></rc>
    <rc><c>Si</c><c>   1</c></rc>
    <rc><c>Si</c><c>   1</c></rc>
    <rc><c>Si</c><c>   1</c></rc>
    <rc><c>Si</c><c>   1</c></rc>
    <rc><c>Si</c><c>   1</c></rc>
    <rc><c>Si</c><c>   1</c></rc>
    <rc><c>Si</c><c>   1</c></rc>
    <rc><c>Si</c><c>   1</c></rc>
    <rc><c>Si</c><c>   1</c></rc>
    <rc><c>Si</c><c>   1</c></rc>
    <rc><c>Si</c><c>   1</c></rc>
    <rc><c>Si</c><c>   1</c></rc>
    <rc><c>Si</c><c>   1</c></rc>
    <rc><c>Si</c><c>   1</c></rc>
    <rc><c>Si</c><c>   1</c></rc>
    <rc><c>Si</c><c>   1</c></rc>
    <rc><c>Si</c><c>   1</c></rc>
    <rc><c>Si</c><c>   1</c></rc>
    <rc><c>Si</c><c>   1</c></rc>
    <rc><c>Si</c><c>   1</c></rc>
    <rc><c>Si</c><c>   1</c></rc>
    <rc><c>Si</c><c>   1</c></rc>
    <rc><c>Si</c><c>   1</c></rc>
    <rc><c>Si</c><c>   1</c></rc>
    <rc><c>Si</c><c>   1</c></rc>
    <rc><c>Si</c><c>   1</c></rc>
    <rc><c>Si</c><c>   1</c></rc>
    <rc><c>Si</c><c>   1</c></rc>
    <rc><c>Si</c><c>   1</c></rc>
    <rc><c>Si</c><c>   1</c></rc>
    <rc><c>Si</c><c>   1</c></rc>
    <rc><c>Si</c><c>   1</c></rc>
    <rc><c>Si</c><c>   1</c></rc>
    <rc><c>Si</c><c>   1</c></rc>
    <rc><c>Si</c><c>   1</c></rc>
    <rc><c>Si</c><c>   1</c></rc>
    <rc><c>Si</c><c>   1</c></rc>
    <rc><c>Si</c><c>   1</c></rc>
    <rc><c>Si</c><c>   1</c></rc>
    <rc><c>Si</c><c>   1</c></rc>
    <rc><c>Si</c><c>   1</c></rc>
    <rc><c>Si</c><c>   1</c></rc>
    <rc><c>Si</c><c>   1</c></rc>
    <rc><c>Si</c><c>   1</c></rc>
    <rc><c>Si</c><c>   1</c></rc>
    <rc><c>Si</c><c>   1</c></rc>
    <rc><c>Si</c><c>   1</c></rc>
    <rc><c>Si</c><c>   1</c></rc>
    <rc><c>Si</c><c>   1</c></rc>
    <rc><c>Si</c><c>   1</c></rc>
    <rc><c>Si</c><c>   1</c></rc>
    <rc><c>Si</c><c>   1</c></rc>
    <rc><c>Si</c><c>   1</c></rc>
    <rc><c>Si</c><c>   1</c></rc>
    <rc><c>Si</c><c>   1</c></rc>
    <rc><c>Si</c><c>   1</c></rc>
    <rc><c>Si</c><c>   1</c></rc>
    <rc><c>Si</c><c>   1</c></rc>
    <rc><c>Si</c><c>   1</c></rc>
    <rc><c>Si</c><c>   1</c></rc>
    <rc><c>Si</c><c>   1</c></rc>
    <rc><c>Si</c><c>   1</c></rc>
    <rc><c>Si</c><c>   1</c></rc>
    <rc><c>Si</c><c>   1</c></rc>
    <rc><c>Si</c><c>   1</c></rc>
    <rc><c>Si</c><c>   1</c></rc>
    <rc><c>Si</c><c>   1</c></rc>
    <rc><c>Si</c><c>   1</c></rc>
    <rc><c>Si</c><c>   1</c></rc>
    <rc><c>Si</c><c>   1</c></rc>
    <rc><c>Si</c><c>   1</c></rc>
    <rc><c>Si</c><c>   1</c></rc>
    <rc><c>Si</c><c>   1</c></rc>
    <rc><c>Si</c><c>   1</c></rc>
    <rc><c>Si</c><c>   1</c></rc>
    <rc><c>Si</c><c>   1</c></rc>
    <rc><c>Si</c><c>   1</c></rc>
    <rc><c>Si</c><c>   1</c></rc>
    <rc><c>Si</c><c>   1</c></rc>
    <rc><c>Si</c><c>   1</c></rc>
    <rc><c>Si</c><c>   1</c></rc>
    <rc><c>Si</c><c>   1</c></rc>
    <rc><c>Si</c><c>   1</c></rc>
   </set>
  </array>
  <array name="atomtypes" >
   <dimension dim="1">type</dimension>
   <field type="int">atomspertype</field>
   <field type="string">element</field>
   <field>mass</field>
   <field>valence</field>
   <field type="string">pseudopotential</field>
   <set>
    <rc><c> 100</c><c>Si</c><c>     28.08500000</c><c>      4.00000000</c><c>  PAW_PBE Si 05Jan2001                  </c></rc>
   </set>
  </array>
 </atominfo>
 <structure name="initialpos" >
  <crystal>
   <varray name="basis" >
    <v>      10.21149500       0.00000000       0.00000000 </v>
    <v>       0.00000000      10.21149500       0.00000000 </v>
    <v>       0.00000000       0.00000000      10.21149500 </v>
   </varray>
   <i name="volume">   1064.79986425 </i>
   <varray name="rec_basis" >
    <v>       0.09792885       0.00000000       0.00000000 </v>
    <v>       0.00000000       0.09792885       0.00000000 </v>
    <v>       0.00000000       0.00000000       0.09792885 </v>
   </varray>
  </crystal>
  <varray name="positions" >
   <v>       0.05830000       0.21383200       0.05287360 </v>
   <v>       0.17441900       0.69339400       0.50406200 </v>
   <v>       0.60145900       0.79139700       0.92197900 </v>
   <v>       0.25266300       0.42468100       0.30417800 </v>
   <v>       0.15169100       0.22454100       0.37226600 </v>
   <v>       0.60634200       0.29625300       0.21046300 </v>
   <v>       0.55636500       0.40997500       0.44039600 </v>
   <v>       0.87323500       0.33336200       0.90970000 </v>
   <v>       0.82260100       0.33164300       0.12653000 </v>
   <v>       0.88082600       0.55646300       0.53550500 </v>
   <v>       0.82610400       0.63242900       0.29511100 </v>
   <v>       0.41156300       0.26653800       0.35382500 </v>
   <v>       0.72154700       0.00360000       0.46866700 </v>
   <v>       0.57562000       0.94041980       0.12946700 </v>
   <v>       0.79610400       0.85987600       0.02820570 </v>
   <v>       0.13885700       0.87858000       0.06634520 </v>
   <v>       0.06600480       0.82299800       0.66324700 </v>
   <v>       0.64948500       0.02134010       0.91666900 </v>
   <v>       0.90403800       0.54698900       0.10346500 </v>
   <v>       0.55476600       0.08098950       0.32482600 </v>
   <v>       0.96252900       0.77531700       0.16319900 </v>
   <v>       0.58856500       0.61891400       0.77635000 </v>
   <v>       0.88639100       0.91638300       0.58148400 </v>
   <v>       0.95856400       0.56431200       0.86224300 </v>
   <v>       0.65065300       0.82709700       0.69314900 </v>
   <v>       0.66463700       0.73558700       0.14744700 </v>
   <v>       0.49902900       0.72028400       0.55737100 </v>
   <v>       0.85053900       0.93019900       0.80574900 </v>
   <v>       0.46122900       0.14983600       0.90662500 </v>
   <v>       0.40351500       0.74230700       0.79620700 </v>
   <v>       0.95263400       0.00533000       0.14218500 </v>
   <v>       0.41902300       0.91530200       0.94581000 </v>
   <v>       0.14914500       0.85463500       0.30298600 </v>
   <v>       0.58278600       0.83825000       0.34509600 </v>
   <v>       0.62116000       0.27567700       0.75765800 </v>
   <v>       0.50313400       0.45087900       0.65523500 </v>
   <v>       0.14167800       0.47098500       0.50512500 </v>
   <v>       0.95634100       0.37754400       0.67047800 </v>
   <v>       0.50666400       0.61635300       0.03273000 </v>
   <v>       0.15060800       0.07793830       0.21255200 </v>
   <v>       0.09773240       0.41283700       0.95192900 </v>
   <v>       0.31801100       0.59636800       0.64346600 </v>
   <v>       0.74483700       0.75548500       0.48535600 </v>
   <v>       0.77263400       0.65593800       0.94397000 </v>
   <v>       0.20937200       0.64645100       0.23720200 </v>
   <v>       0.43857600       0.14128100       0.14448800 </v>
   <v>       0.35644600       0.81973600       0.40160900 </v>
   <v>       0.19665000       0.61197600       0.84348100 </v>
   <v>       0.45160000       0.48376700       0.22113600 </v>
   <v>       0.96546300       0.33961600       0.43148400 </v>
   <v>       0.20432600       0.40142100       0.73265900 </v>
   <v>       0.35910800       0.58237500       0.41461800 </v>
   <v>       0.08536540       0.23281900       0.81523500 </v>
   <v>       0.26437500       0.06951500       0.00507000 </v>
   <v>       0.82952400       0.18573300       0.75556900 </v>
   <v>       0.11341000       0.23574000       0.58344400 </v>
   <v>       0.65800700       0.23589200       0.99508840 </v>
   <v>       0.03002660       0.55711500       0.33541900 </v>
   <v>       0.14529700       0.99419346       0.51378900 </v>
   <v>       0.85038300       0.70765700       0.70907200 </v>
   <v>       0.63758200       0.46067600       0.93276500 </v>
   <v>       0.99464300       0.78236100       0.88970000 </v>
   <v>       0.46478900       0.98776400       0.75127500 </v>
   <v>       0.96359400       0.99637100       0.37368100 </v>
   <v>       0.33640000       0.91987700       0.16890600 </v>
   <v>       0.39014800       0.48140500       0.86068600 </v>
   <v>       0.20979200       0.86203600       0.83362600 </v>
   <v>       0.94039400       0.19989300       0.26146200 </v>
   <v>       0.48832200       0.97212000       0.51878500 </v>
   <v>       0.43513000       0.71194500       0.22624400 </v>
   <v>       0.90691700       0.14781300       0.53820800 </v>
   <v>       0.67842300       0.51280200       0.15379100 </v>
   <v>       0.30704400       0.72102000       0.02768830 </v>
   <v>       0.75027400       0.20365600       0.38397100 </v>
   <v>       0.73975800       0.10443000       0.17764000 </v>
   <v>       0.33435200       0.36708700       0.53174500 </v>
   <v>       0.67860700       0.04749630       0.67898300 </v>
   <v>       0.39920200       0.27002000       0.72797700 </v>
   <v>       0.78143700       0.49312400       0.75472500 </v>
   <v>       0.46961600       0.35170300       0.03212020 </v>
   <v>       0.28536400       0.28725800       0.91555500 </v>
   <v>       0.02598300       0.04299660       0.70165800 </v>
   <v>       0.04712550       0.61088800       0.66731900 </v>
   <v>       0.56596400       0.19559200       0.53532700 </v>
   <v>       0.04921960       0.01599000       0.92361200 </v>
   <v>       0.78516300       0.88406800       0.27005700 </v>
   <v>       0.75701200       0.33267900       0.58084900 </v>
   <v>       0.10066300       0.63907600       0.04296030 </v>
   <v>       0.32888000       0.13784000       0.55143600 </v>
   <v>       0.25171700       0.08087940       0.76249700 </v>
   <v>       0.66705000       0.56460200       0.56802700 </v>
   <v>       0.96859000       0.76421000       0.41432900 </v>
   <v>       0.25259800       0.26688000       0.15973200 </v>
   <v>       0.30275300       0.85679400       0.62649000 </v>
   <v>       0.76803500       0.42877700       0.35144600 </v>
   <v>       0.32903300       0.05167690       0.35290000 </v>
   <v>       0.84953700       0.10247900       0.96906700 </v>
   <v>       0.60300100       0.61835400       0.35849900 </v>
   <v>       0.06402000       0.39049800       0.19205800 </v>
   <v>       0.26990600       0.47652500       0.08065630 </v>
  </varray>
 </structure>
 <calculation>
  <scstep>
   <time name="diag">    0.35    0.35</time>
   <time name="diis">    0.43    0.44</time>
   <time name="orth">    0.10    0.10</time>
   <time name="total">    0.97    1.09</time>
   <energy>
    <i name="alphaZ">    316.14514549 </i>
    <i name="ewald"> -15004.33042083 </i>
    <i name="hartreedc">    -60.18140545 </i>
    <i name="XCdc">   -778.33204072 </i>
    <i name="pawpsdc">   8803.41707833 </i>
    <i name="pawaedc">  -7043.47671478 </i>
    <i name="eentropy">     -0.02820035 </i>
    <i name="bandstr">   4822.13081963 </i>
    <i name="atom">  10306.12861560 </i>
    <i name="e_fr_energy">   1361.47287692 </i>
    <i name="e_wo_entrp">   1361.50107727 </i>
    <i name="e_0_energy">   1361.48697709 </i>
   </energy>
  </scstep>
  <scstep>
   <time name="diag">    0.34    0.34</time>
   <time name="diis">    0.44    0.44</time>
   <time name="orth">    0.10    0.10</time>
   <time name="total">    0.88    0.88</time>
   <energy>
    <i name="e_fr_energy">     -4.45882685 </i>
    <i name="e_wo_entrp">     -4.44562738 </i>
    <i name="e_0_energy">     -4.45222711 </i>
   </energy>
  </scstep>
  <scstep>
   <time name="diag">    0.34    0.34</time>
   <time name="diis">    0.44    0.44</time>
   <time name="orth">    0.10    0.10</time>
   <time name="total">    0.87    0.88</time>
   <energy>
    <i name="e_fr_energy">   -291.78161487 </i>
    <i name="e_wo_entrp">   -291.73770233 </i>
    <i name="e_0_energy">   -291.75965860 </i>
   </energy>
  </scstep>
  <scstep>
   <time name="diag">    0.34    0.34</time>
   <time name="diis">    0.44    0.45</time>
   <time name="orth">    0.10    0.10</time>
   <time name="total">    0.88    0.89</time>
   <energy>
    <i name="e_fr_energy">   -369.11293720 </i>
    <i name="e_wo_entrp">   -369.02823293 </i>
    <i name="e_0_energy">   -369.07058506 </i>
   </energy>
  </scstep>
  <scstep>
   <time name="diag">    0.34    0.34</time>
   <time name="diis">    0.44    0.44</time>
   <time name="orth">    0.10    0.10</time>
   <time name="total">    0.87    0.88</time>
   <energy>
    <i name="e_fr_energy">   -393.86786694 </i>
    <i name="e_wo_entrp">   -393.82154830 </i>
    <i name="e_0_energy">   -393.84470762 </i>
   </energy>
  </scstep>
  <scstep>
   <time name="diag">    0.34    0.34</time>
   <time name="diis">    0.44    0.44</time>
   <time name="orth">    0.10    0.10</time>
   <time name="total">    0.88    0.88</time>
   <energy>
    <i name="e_fr_energy">   -403.08968800 </i>
    <i name="e_wo_entrp">   -403.04576891 </i>
    <i name="e_0_energy">   -403.06772845 </i>
   </energy>
  </scstep>
  <scstep>
   <time name="diag">    0.33    0.34</time>
   <time name="diis">    0.44    0.45</time>
   <time name="orth">    0.10    0.10</time>
   <time name="total">    0.87    0.89</time>
   <energy>
    <i name="e_fr_energy">   -406.48505445 </i>
    <i name="e_wo_entrp">   -406.43372717 </i>
    <i name="e_0_energy">   -406.45939081 </i>
   </energy>
  </scstep>
  <scstep>
   <time name="diag">    0.34    0.34</time>
   <time name="diis">    0.44    0.44</time>
   <time name="orth">    0.10    0.10</time>
   <time name="total">    0.87    0.88</time>
   <energy>
    <i name="e_fr_energy">   -407.86628373 </i>
    <i name="e_wo_entrp">   -407.81797546 </i>
    <i name="e_0_energy">   -407.84212959 </i>
   </energy>
  </scstep>
  <scstep>
   <time name="diag">    0.34    0.34</time>
   <time name="diis">    0.97    0.98</time>
   <time name="orth">    0.10    0.10</time>
   <time name="total">    1.40    1.42</time>
   <energy>
    <i name="e_fr_energy">   -408.63063816 </i>
    <i name="e_wo_entrp">   -408.58427544 </i>
    <i name="e_0_energy">   -408.60745680 </i>
   </energy>
  </scstep>
  <scstep>
   <time name="diag">    0.34    0.34</time>
   <time name="diis">    0.90    0.91</time>
   <time name="orth">    0.10    0.10</time>
   <time name="total">    1.34    1.35</time>
   <energy>
    <i name="e_fr_energy">   -408.72386357 </i>
    <i name="e_wo_entrp">   -408.67747527 </i>
    <i name="e_0_energy">   -408.70066942 </i>
   </energy>
  </scstep>
  <scstep>
   <time name="diag">    0.34    0.34</time>
   <time name="diis">    0.86    0.87</time>
   <time name="orth">    0.10    0.10</time>
   <time name="total">    1.30    1.31</time>
   <energy>
    <i name="e_fr_energy">   -408.72559863 </i>
    <i name="e_wo_entrp">   -408.67921302 </i>
    <i name="e_0_energy">   -408.70240583 </i>
   </energy>
  </scstep>
  <scstep>
   <time name="diag">    0.34    0.34</time>
   <time name="diis">    0.75    0.76</time>
   <time name="orth">    0.10    0.10</time>
   <time name="total">    1.23    1.25</time>
   <energy>
    <i name="e_fr_energy">   -408.72561229 </i>
    <i name="e_wo_entrp">   -408.67922667 </i>
    <i name="e_0_energy">   -408.70241948 </i>
   </energy>
  </scstep>
  <scstep>
   <time name="diag">    0.34    0.34</time>
   <time name="diis">    0.89    0.90</time>
   <time name="orth">    0.10    0.10</time>
   <time name="total">    1.46    1.48</time>
   <energy>
    <i name="e_fr_energy">   -415.30319767 </i>
    <i name="e_wo_entrp">   -415.24230293 </i>
    <i name="e_0_energy">   -415.27275030 </i>
   </energy>
  </scstep>
  <scstep>
   <time name="diag">    0.34    0.34</time>
   <time name="diis">    0.89    0.91</time>
   <time name="orth">    0.10    0.10</time>
   <time name="total">    1.46    1.48</time>
   <energy>
    <i name="e_fr_energy">   -423.70782045 </i>
    <i name="e_wo_entrp">   -423.64528666 </i>
    <i name="e_0_energy">   -423.67655356 </i>
   </energy>
  </scstep>
  <scstep>
   <time name="diag">    0.34    0.34</time>
   <time name="diis">    0.91    0.93</time>
   <time name="orth">    0.10    0.10</time>
   <time name="total">    1.48    1.50</time>
   <energy>
    <i name="e_fr_energy">   -424.67257427 </i>
    <i name="e_wo_entrp">   -424.63266138 </i>
    <i name="e_0_energy">   -424.65261782 </i>
   </energy>
  </scstep>
  <scstep>
   <time name="diag">    0.34    0.34</time>
   <time name="diis">    0.92    0.93</time>
   <time name="orth">    0.10    0.10</time>
   <time name="total">    1.49    1.50</time>
   <energy>
    <i name="e_fr_energy">   -424.88296215 </i>
    <i name="e_wo_entrp">   -424.83872201 </i>
    <i name="e_0_energy">   -424.86084208 </i>
   </energy>
  </scstep>
  <scstep>
   <time name="diag">    0.34    0.34</time>
   <time name="diis">    0.94    0.95</time>
   <time name="orth">    0.10    0.10</time>
   <time name="total">    1.51    1.53</time>
   <energy>
    <i name="e_fr_energy">   -424.98143279 </i>
    <i name="e_wo_entrp">   -424.93638668 </i>
    <i name="e_0_energy">   -424.95890974 </i>
   </energy>
  </scstep>
  <scstep>
   <time name="diag">    0.34    0.34</time>
   <time name="diis">    0.94    0.95</time>
   <time name="orth">    0.10    0.10</time>
   <time name="total">    1.51    1.52</time>
   <energy>
    <i name="e_fr_energy">   -425.01475942 </i>
    <i name="e_wo_entrp">   -424.96397168 </i>
    <i name="e_0_energy">   -424.98936555 </i>
   </energy>
  </scstep>
  <scstep>
   <time name="diag">    0.34    0.34</time>
   <time name="diis">    0.93    0.94</time>
   <time name="orth">    0.10    0.10</time>
   <time name="total">    1.50    1.52</time>
   <energy>
    <i name="e_fr_energy">   -425.02138668 </i>
    <i name="e_wo_entrp">   -424.96318159 </i>
    <i name="e_0_energy">   -424.99228414 </i>
   </energy>
  </scstep>
  <scstep>
   <time name="diag">    0.34    0.34</time>
   <time name="diis">    0.92    0.93</time>
   <time name="orth">    0.10    0.10</time>
   <time name="total">    1.49    1.51</time>
   <energy>
    <i name="e_fr_energy">   -425.02330466 </i>
    <i name="e_wo_entrp">   -424.96067560 </i>
    <i name="e_0_energy">   -424.99199013 </i>
   </energy>
  </scstep>
  <scstep>
   <time name="diag">    0.34    0.34</time>
   <time name="diis">    0.93    0.94</time>
   <time name="orth">    0.10    0.10</time>
   <time name="total">    1.50    1.51</time>
   <energy>
    <i name="e_fr_energy">   -425.02406554 </i>
    <i name="e_wo_entrp">   -424.95938288 </i>
    <i name="e_0_energy">   -424.99172421 </i>
   </energy>
  </scstep>
  <scstep>
   <time name="diag">    0.34    0.34</time>
   <time name="diis">    0.93    0.95</time>
   <time name="orth">    0.10    0.10</time>
   <time name="total">    1.51    1.52</time>
   <energy>
    <i name="e_fr_energy">   -425.02449218 </i>
    <i name="e_wo_entrp">   -424.95844819 </i>
    <i name="e_0_energy">   -424.99147019 </i>
   </energy>
  </scstep>
  <scstep>
   <time name="diag">    0.34    0.34</time>
   <time name="diis">    0.91    0.92</time>
   <time name="orth">    0.10    0.10</time>
   <time name="total">    1.48    1.50</time>
   <energy>
    <i name="e_fr_energy">   -425.02475226 </i>
    <i name="e_wo_entrp">   -424.95793120 </i>
    <i name="e_0_energy">   -424.99134173 </i>
   </energy>
  </scstep>
  <scstep>
   <time name="diag">    0.34    0.34</time>
   <time name="diis">    0.92    0.94</time>
   <time name="orth">    0.10    0.10</time>
   <time name="total">    1.49    1.51</time>
   <energy>
    <i name="e_fr_energy">   -425.02487762 </i>
    <i name="e_wo_entrp">   -424.95761164 </i>
    <i name="e_0_energy">   -424.99124463 </i>
   </energy>
  </scstep>
  <scstep>
   <time name="diag">    0.34    0.34</time>
   <time name="diis">    0.92    0.95</time>
   <time name="orth">    0.10    0.10</time>
   <time name="total">    1.49    1.53</time>
   <energy>
    <i name="e_fr_energy">   -425.02491501 </i>
    <i name="e_wo_entrp">   -424.95757356 </i>
    <i name="e_0_energy">   -424.99124429 </i>
   </energy>
  </scstep>
  <scstep>
   <time name="diag">    0.34    0.34</time>
   <time name="diis">    0.85    0.86</time>
   <time name="orth">    0.10    0.10</time>
   <time name="total">    1.37    1.38</time>
   <energy>
    <i name="alphaZ">    316.14514549 </i>
    <i name="ewald"> -15004.33042083 </i>
    <i name="hartreedc">    -85.25665573 </i>
    <i name="XCdc">   -771.27082342 </i>
    <i name="pawpsdc">  82047.03202672 </i>
    <i name="pawaedc"> -80300.92104470 </i>
    <i name="eentropy">     -0.06738227 </i>
    <i name="bandstr">   3067.51561526 </i>
    <i name="atom">  10306.12861560 </i>
    <i name="e_fr_energy">   -425.02492389 </i>
    <i name="e_wo_entrp">   -424.95754161 </i>
    <i name="e_0_energy">   -424.99123275 </i>
   </energy>
  </scstep>
  <structure>
   <crystal>
    <varray name="basis" >
     <v>      10.21149500       0.00000000       0.00000000 </v>
     <v>       0.00000000      10.21149500       0.00000000 </v>
     <v>       0.00000000       0.00000000      10.21149500 </v>
    </varray>
    <i name="volume">   1064.79986425 </i>
    <varray name="rec_basis" >
     <v>       0.09792885       0.00000000       0.00000000 </v>
     <v>       0.00000000       0.09792885       0.00000000 </v>
     <v>       0.00000000       0.00000000       0.09792885 </v>
    </varray>
   </crystal>
   <varray name="positions" >
    <v>       0.05830000       0.21383200       0.05287360 </v>
    <v>       0.17441900       0.69339400       0.50406200 </v>
    <v>       0.60145900       0.79139700       0.92197900 </v>
    <v>       0.25266300       0.42468100       0.30417800 </v>
    <v>       0.15169100       0.22454100       0.37226600 </v>
    <v>       0.60634200       0.29625300       0.21046300 </v>
    <v>       0.55636500       0.40997500       0.44039600 </v>
    <v>       0.87323500       0.33336200       0.90970000 </v>
    <v>       0.82260100       0.33164300       0.12653000 </v>
    <v>       0.88082600       0.55646300       0.53550500 </v>
    <v>       0.82610400       0.63242900       0.29511100 </v>
    <v>       0.41156300       0.26653800       0.35382500 </v>
    <v>       0.72154700       0.00360000       0.46866700 </v>
    <v>       0.57562000       0.94041980       0.12946700 </v>
    <v>       0.79610400       0.85987600       0.02820570 </v>
    <v>       0.13885700       0.87858000       0.06634520 </v>
    <v>       0.06600480       0.82299800       0.66324700 </v>
    <v>       0.64948500       0.02134010       0.91666900 </v>
    <v>       0.90403800       0.54698900       0.10346500 </v>
    <v>       0.55476600       0.08098950       0.32482600 </v>
    <v>       0.96252900       0.77531700       0.16319900 </v>
    <v>       0.58856500       0.61891400       0.77635000 </v>
    <v>       0.88639100       0.91638300       0.58148400 </v>
    <v>       0.95856400       0.56431200       0.86224300 </v>
    <v>       0.65065300       0.82709700       0.69314900 </v>
    <v>       0.66463700       0.73558700       0.14744700 </v>
    <v>       0.49902900       0.72028400       0.55737100 </v>
    <v>       0.85053900       0.93019900       0.80574900 </v>
    <v>       0.46122900       0.14983600       0.90662500 </v>
    <v>       0.40351500       0.74230700       0.79620700 </v>
    <v>       0.95263400       0.00533000       0.14218500 </v>
    <v>       0.41902300       0.91530200       0.94581000 </v>
    <v>       0.14914500       0.85463500       0.30298600 </v>
    <v>       0.58278600       0.83825000       0.34509600 </v>
    <v>       0.62116000       0.27567700       0.75765800 </v>
    <v>       0.50313400       0.45087900       0.65523500 </v>
    <v>       0.14167800       0.47098500       0.50512500 </v>
    <v>       0.95634100       0.37754400       0.67047800 </v>
    <v>       0.50666400       0.61635300       0.03273000 </v>
    <v>       0.15060800       0.07793830       0.21255200 </v>
    <v>       0.09773240       0.41283700       0.95192900 </v>
    <v>       0.31801100       0.59636800       0.64346600 </v>
    <v>       0.74483700       0.75548500       0.48535600 </v>
    <v>       0.77263400       0.65593800       0.94397000 </v>
    <v>       0.20937200       0.64645100       0.23720200 </v>
    <v>       0.43857600       0.14128100       0.14448800 </v>
    <v>       0.35644600       0.81973600       0.40160900 </v>
    <v>       0.19665000       0.61197600       0.84348100 </v>
    <v>       0.45160000       0.48376700       0.22113600 </v>
    <v>       0.96546300       0.33961600       0.43148400 </v>
    <v>       0.20432600       0.40142100       0.73265900 </v>
    <v>       0.35910800       0.58237500       0.41461800 </v>
    <v>       0.08536540       0.23281900       0.81523500 </v>
    <v>       0.26437500       0.06951500       0.00507000 </v>
    <v>       0.82952400       0.18573300       0.75556900 </v>
    <v>       0.11341000       0.23574000       0.58344400 </v>
    <v>       0.65800700       0.23589200       0.99508840 </v>
    <v>       0.03002660       0.55711500       0.33541900 </v>
    <v>       0.14529700       0.99419346       0.51378900 </v>
    <v>       0.85038300       0.70765700       0.70907200 </v>
    <v>       0.63758200       0.46067600       0.93276500 </v>
    <v>       0.99464300       0.78236100       0.88970000 </v>
    <v>       0.46478900       0.98776400       0.75127500 </v>
    <v>       0.96359400       0.99637100       0.37368100 </v>
    <v>       0.33640000       0.91987700       0.16890600 </v>
    <v>       0.39014800       0.48140500       0.86068600 </v>
    <v>       0.20979200       0.86203600       0.83362600 </v>
    <v>       0.94039400       0.19989300       0.26146200 </v>
    <v>       0.48832200       0.97212000       0.51878500 </v>
    <v>       0.43513000       0.71194500       0.22624400 </v>
    <v>       0.90691700       0.14781300       0.53820800 </v>
    <v>       0.67842300       0.51280200       0.15379100 </v>
    <v>       0.30704400       0.72102000       0.02768830 </v>
    <v>       0.75027400       0.20365600       0.38397100 </v>
    <v>       0.73975800       0.10443000       0.17764000 </v>
    <v>       0.33435200       0.36708700       0.53174500 </v>
    <v>       0.67860700       0.04749630       0.67898300 </v>
    <v>       0.39920200       0.27002000       0.72797700 </v>
    <v>       0.78143700       0.49312400       0.75472500 </v>
    <v>       0.46961600       0.35170300       0.03212020 </v>
    <v>       0.28536400       0.28725800       0.91555500 </v>
    <v>       0.02598300       0.04299660       0.70165800 </v>
    <v>       0.04712550       0.61088800       0.66731900 </v>
    <v>       0.56596400       0.19559200       0.53532700 </v>
    <v>       0.04921960       0.01599000       0.92361200 </v>
    <v>       0.78516300       0.88406800       0.27005700 </v>
    <v>       0.75701200       0.33267900       0.58084900 </v>
    <v>       0.10066300       0.63907600       0.04296030 </v>
    <v>       0.32888000       0.13784000       0.55143600 </v>
    <v>       0.25171700       0.08087940       0.76249700 </v>
    <v>       0.66705000       0.56460200       0.56802700 </v>
    <v>       0.96859000       0.76421000       0.41432900 </v>
    <v>       0.25259800       0.26688000       0.15973200 </v>
    <v>       0.30275300       0.85679400       0.62649000 </v>
    <v>       0.76803500       0.42877700       0.35144600 </v>
    <v>       0.32903300       0.05167690       0.35290000 </v>
    <v>       0.84953700       0.10247900       0.96906700 </v>
    <v>       0.60300100       0.61835400       0.35849900 </v>
    <v>       0.06402000       0.39049800       0.19205800 </v>
    <v>       0.26990600       0.47652500       0.08065630 </v>
   </varray>
  </structure>
  <varray name="forces" >
   <v>      -1.04522763      -0.35471052      -1.11016779 </v>
   <v>      -0.24566899       1.67265668      -1.91861406 </v>
   <v>      -0.11012428       0.87613778      -0.19572615 </v>
   <v>      -0.54220089       0.60013187       1.83274325 </v>
   <v>       0.52423985       0.03840054      -0.28899265 </v>
   <v>      -0.61530568       0.17976955       1.22257700 </v>
   <v>       0.25333118      -0.09644688      -0.39146612 </v>
   <v>       0.09461611       1.15403762       0.18860419 </v>
   <v>       0.91070716       0.76024198       0.29048823 </v>
   <v>       0.67088461      -0.62068118      -1.87402416 </v>
   <v>      -0.50699832       1.36153508       0.08567663 </v>
   <v>       0.03319672      -0.64930495      -1.44998118 </v>
   <v>      -0.22781633      -1.23173085      -1.02369449 </v>
   <v>      -0.52267012       0.88166042      -0.09240262 </v>
   <v>       1.48499409       1.77928550      -0.68022835 </v>
   <v>       0.30560547      -1.23788044       0.29643018 </v>
   <v>       0.73658911       0.71646721      -0.18517587 </v>
   <v>      -0.74451908      -0.90136025      -0.10628915 </v>
   <v>       0.30486081      -0.50622410      -0.09673680 </v>
   <v>       0.45413253      -0.64802591      -0.24323688 </v>
   <v>       0.20290957      -0.47246913       0.16415493 </v>
   <v>       0.21609664       0.07991348       0.57886182 </v>
   <v>      -0.63962141      -0.86651759      -0.46901632 </v>
   <v>       0.19842247      -1.08414467       1.04379677 </v>
   <v>      -0.11907382       0.01315103      -0.14370805 </v>
   <v>      -0.65796112      -0.45493262       0.44066036 </v>
   <v>      -0.30029835       0.14882926       0.28334943 </v>
   <v>      -0.88544327       0.31246991       0.44083224 </v>
   <v>       0.47150691       0.06514989       0.76432292 </v>
   <v>      -0.44467232      -0.05384900       0.72368258 </v>
   <v>      -0.65362608      -0.68801490       0.16850235 </v>
   <v>      -0.53040311      -0.23678828       2.04704658 </v>
   <v>      -0.24432910       0.45713539       0.80032905 </v>
   <v>      -0.75060173       1.82085165       0.26514100 </v>
   <v>       0.09662109       0.21882655       0.86408998 </v>
   <v>      -0.61040472      -0.17951013       0.87569027 </v>
   <v>      -0.70123280      -0.78286229       1.26225611 </v>
   <v>       1.30749325       0.53330334       0.61805915 </v>
   <v>      -1.07663481      -0.28341345      -0.73822449 </v>
   <v>       0.02723154      -1.80541501       0.34467596 </v>
   <v>      -0.68799237       0.75682038       0.10536240 </v>
   <v>       0.64675567      -1.25583440       0.24336807 </v>
   <v>       0.71413632       1.00509977       0.52306253 </v>
   <v>       0.44562930      -1.46451538      -0.27956648 </v>
   <v>       0.13767047       0.19966243       0.71183641 </v>
   <v>       0.26629835      -0.23598037      -0.69844791 </v>
   <v>      -1.23489837       0.56842862       0.17555639 </v>
   <v>       0.87536535       0.18535287      -0.50738361 </v>
   <v>       1.35291332      -0.61207719       0.03885647 </v>
   <v>      -0.46415168       1.45546018       0.36926436 </v>
   <v>      -0.47842771       1.68933893      -1.06634656 </v>
   <v>       1.52118415       0.67966972       0.63454014 </v>
   <v>      -1.79528164      -0.73805704       0.15556863 </v>
   <v>      -0.35470669       0.55886435      -0.25434084 </v>
   <v>       1.33331588      -0.18458233      -0.60209876 </v>
   <v>       0.70405323      -0.11362436       0.71795445 </v>
   <v>       0.27994112       0.04607647      -1.01157911 </v>
   <v>      -0.04673712      -0.27047543      -0.36294300 </v>
   <v>       0.69275713       0.15144387      -0.34779622 </v>
   <v>      -0.82760814       1.22482375       0.25583703 </v>
   <v>       1.00702278      -1.28526830      -1.35202584 </v>
   <v>       0.10168930       0.46295743       0.86889508 </v>
   <v>       1.02438469      -0.18965069      -2.91530731 </v>
   <v>       0.33504509      -0.07414415      -0.21878220 </v>
   <v>       0.73242568      -0.71567318      -0.11497135 </v>
   <v>       0.62879492       1.52959962      -0.05963010 </v>
   <v>      -0.26408131      -0.34863946       0.98812878 </v>
   <v>       0.63863271      -0.47357715      -0.09620752 </v>
   <v>       0.44084923      -0.41906324       0.77722136 </v>
   <v>      -0.39552043       0.66681896      -1.01596297 </v>
   <v>      -0.27132017      -0.37244533       0.03008736 </v>
   <v>      -0.07458740      -0.51665021      -0.67680331 </v>
   <v>       0.75751117       0.52581515      -0.30779993 </v>
   <v>      -0.46279766       0.69893418      -0.32923711 </v>
   <v>       0.12501556      -0.59100032      -0.57141751 </v>
   <v>      -0.38627082       0.90529289       0.21236592 </v>
   <v>      -1.13385581       0.22727993       0.52351579 </v>
   <v>       0.29166022      -1.05668644      -0.79533315 </v>
   <v>      -0.81000533      -1.10539754       0.82342311 </v>
   <v>      -0.76348932      -0.10994427       0.71014151 </v>
   <v>      -0.96701354      -0.54234201       1.81833574 </v>
   <v>       0.34833407       0.83729663       0.45603472 </v>
   <v>       1.57913740      -2.26093374       0.21504895 </v>
   <v>      -0.79660208       0.29291559       0.40189161 </v>
   <v>       0.11169337       0.27552004      -0.65127653 </v>
   <v>       1.09174543       0.60572795       0.27475620 </v>
   <v>      -0.77967300       0.53860848      -0.91696317 </v>
   <v>      -0.93719955      -0.19561656       0.15901103 </v>
   <v>       0.03028931       0.49574380       1.05434167 </v>
   <v>       0.15870869      -0.32123231      -0.27398529 </v>
   <v>       0.06095995      -0.71071521       0.16327888 </v>
   <v>       0.14735135       0.62328446       0.59675281 </v>
   <v>       1.73452589      -1.07190807      -1.49449279 </v>
   <v>      -0.49133413       0.55446312      -0.48006367 </v>
   <v>       0.21015661      -0.63796224       0.69310287 </v>
   <v>      -0.44414025      -1.14575936      -0.35992591 </v>
   <v>       0.09223797       0.47981734       0.43488184 </v>
   <v>      -0.79649561      -1.14152417      -0.28212450 </v>
   <v>      -2.08601761       0.52919823      -0.62479151 </v>
   <v>       1.01341087       0.87529272      -1.05910382 </v>
  </varray>
  <varray name="stress" >
   <v>     608.73934404      10.01228525       2.78707906 </v>
   <v>      10.01228519     625.51056344       6.80728924 </v>
   <v>       2.78707917       6.80728923     601.11095035 </v>
  </varray>
  <energy>
   <i name="e_fr_energy">   -425.02492389 </i>
   <i name="e_wo_entrp">   -424.99123275 </i>
   <i name="e_0_energy">     -0.06738227 </i>
  </energy>
  <time name="totalsc">   35.13   35.75</time>
  <eigenvalues>
   <array>
    <dimension dim="1">band</dimension>
    <dimension dim="2">kpoint</dimension>
    <dimension dim="3">spin</dimension>
    <field>eigene</field>
    <field>occ</field>
    <set>
     <set comment="spin 1">
      <set comment="kpoint 1">
       <r>   -2.9866    1.0000 </r>
       <r>   -1.8549    1.0000 </r>
       <r>   -1.7048    1.0000 </r>
       <r>   -1.6631    1.0000 </r>
       <r>   -1.5826    1.0000 </r>
       <r>   -1.4525    1.0000 </r>
       <r>   -1.3806    1.0000 </r>
       <r>   -0.5556    1.0000 </r>
       <r>   -0.5042    1.0000 </r>
       <r>   -0.3936    1.0000 </r>
       <r>   -0.3450    1.0000 </r>
       <r>   -0.3018    1.0000 </r>
       <r>   -0.2525    1.0000 </r>
       <r>   -0.2261    1.0000 </r>
       <r>   -0.1838    1.0000 </r>
       <r>   -0.1086    1.0000 </r>
       <r>   -0.0494    1.0000 </r>
       <r>    0.0519    1.0000 </r>
       <r>    0.2165    1.0000 </r>
       <r>    0.9798    1.0000 </r>
       <r>    1.0319    1.0000 </r>
       <r>    1.0999    1.0000 </r>
       <r>    1.1333    1.0000 </r>
       <r>    1.2080    1.0000 </r>
       <r>    1.2431    1.0000 </r>
       <r>    1.2970    1.0000 </r>
       <r>    1.3620    1.0000 </r>
       <r>    2.3334    1.0000 </r>
       <r>    2.3663    1.0000 </r>
       <r>    2.4601    1.0000 </r>
       <r>    2.5150    1.0000 </r>
       <r>    2.5692    1.0000 </r>
       <r>    2.6213    1.0000 </r>
       <r>    3.3736    1.0000 </r>
       <r>    3.4576    1.0000 </r>
       <r>    3.4996    1.0000 </r>
       <r>    3.5282    1.0000 </r>
       <r>    3.5771    1.0000 </r>
       <r>    3.6056    1.0000 </r>
       <r>    3.6385    1.0000 </r>
       <r>    3.6799    1.0000 </r>
       <r>    3.6867    1.0000 </r>
       <r>    3.7418    1.0000 </r>
       <r>    3.7999    1.0000 </r>
       <r>    3.8334    1.0000 </r>
       <r>    3.8781    1.0000 </r>
       <r>    3.8973    1.0000 </r>
       <r>    3.9117    1.0000 </r>
       <r>    3.9538    1.0000 </r>
       <r>    3.9925    1.0000 </r>
       <r>    4.0305    1.0000 </r>
       <r>    4.0655    1.0000 </r>
       <r>    4.1066    1.0000 </r>
       <r>    4.1353    1.0000 </r>
       <r>    4.1848    1.0000 </r>
       <r>    4.3106    1.0000 </r>
       <r>    4.3827    1.0000 </r>
       <r>    4.7702    1.0000 </r>
       <r>    4.8359    1.0000 </r>
       <r>    4.8953    1.0000 </r>
       <r>    4.9481    1.0000 </r>
       <r>    5.0092    1.0000 </r>
       <r>    5.0338    1.0000 </r>
       <r>    5.0709    1.0000 </r>
       <r>    5.0987    1.0000 </r>
       <r>    5.1427    1.0000 </r>
       <r>    5.1694    1.0000 </r>
       <r>    5.1909    1.0000 </r>
       <r>    5.1976    1.0000 </r>
       <r>    5.2266    1.0000 </r>
       <r>    5.2600    1.0000 </r>
       <r>    5.2910    1.0000 </r>
       <r>    5.3037    1.0000 </r>
       <r>    5.3937    1.0000 </r>
       <r>    5.4233    1.0000 </r>
       <r>    5.4561    1.0000 </r>
       <r>    5.4982    1.0000 </r>
       <r>    5.5035    1.0000 </r>
       <r>    5.5378    1.0000 </r>
       <r>    5.5875    1.0000 </r>
       <r>    5.6830    1.0000 </r>
       <r>    7.4842    1.0000 </r>
       <r>    7.4925    1.0000 </r>
       <r>    7.5247    1.0000 </r>
       <r>    7.5726    1.0000 </r>
       <r>    7.6578    1.0000 </r>
       <r>    7.6749    1.0000 </r>
       <r>    7.7597    1.0000 </r>
       <r>    7.7767    1.0000 </r>
       <r>    7.7913    1.0000 </r>
       <r>    7.8314    1.0000 </r>
       <r>    7.9463    1.0000 </r>
       <r>    8.0304    1.0000 </r>
       <r>    8.4093    1.0000 </r>
       <r>    8.4356    1.0000 </r>
       <r>    8.5450    1.0000 </r>
       <r>    8.6023    1.0000 </r>
       <r>    8.6608    1.0000 </r>
       <r>    8.7219    1.0000 </r>
       <r>    8.7516    1.0000 </r>
       <r>    8.8008    1.0000 </r>
       <r>    8.8207    1.0000 </r>
       <r>    8.8829    1.0000 </r>
       <r>    8.9093    1.0000 </r>
       <r>    8.9358    1.0000 </r>
       <r>    8.9739    1.0000 </r>
       <r>    8.9980    1.0000 </r>
       <r>    9.0475    1.0000 </r>
       <r>    9.0839    1.0000 </r>
       <r>    9.1415    1.0000 </r>
       <r>    9.2067    1.0000 </r>
       <r>    9.2396    1.0000 </r>
       <r>    9.2690    1.0000 </r>
       <r>    9.3294    1.0000 </r>
       <r>    9.3666    1.0000 </r>
       <r>    9.3799    1.0000 </r>
       <r>    9.4401    1.0000 </r>
       <r>    9.4882    1.0000 </r>
       <r>    9.5255    1.0000 </r>
       <r>    9.5462    1.0000 </r>
       <r>    9.5959    1.0000 </r>
       <r>    9.7171    1.0000 </r>
       <r>    9.7630    1.0000 </r>
       <r>   10.0518    1.0000 </r>
       <r>   10.0808    1.0000 </r>
       <r>   10.0950    1.0000 </r>
       <r>   10.1491    1.0000 </r>
       <r>   10.1790    1.0000 </r>
       <r>   10.2586    1.0000 </r>
       <r>   10.3271    1.0000 </r>
       <r>   10.3650    1.0000 </r>
       <r>   10.3935    1.0000 </r>
       <r>   10.4250    1.0000 </r>
       <r>   10.4624    1.0000 </r>
       <r>   10.4919    1.0000 </r>
       <r>   10.5507    1.0000 </r>
       <r>   10.5638    1.0000 </r>
       <r>   10.6208    1.0000 </r>
       <r>   10.6518    1.0000 </r>
       <r>   10.6837    1.0000 </r>
       <r>   10.7273    1.0000 </r>
       <r>   10.7504    1.0000 </r>
       <r>   10.7852    1.0000 </r>
       <r>   10.8291    1.0000 </r>
       <r>   10.8463    1.0000 </r>
       <r>   10.9815    1.0000 </r>
       <r>   11.0569    1.0000 </r>
       <r>   11.3865    1.0000 </r>
       <r>   11.4038    1.0000 </r>
       <r>   11.4396    1.0000 </r>
       <r>   11.5181    1.0000 </r>
       <r>   11.5210    1.0000 </r>
       <r>   11.5913    1.0000 </r>
       <r>   11.6194    1.0000 </r>
       <r>   11.7063    1.0000 </r>
       <r>   11.7386    1.0000 </r>
       <r>   11.7720    1.0000 </r>
       <r>   11.7896    1.0000 </r>
       <r>   11.8689    1.0000 </r>
       <r>   11.8837    1.0000 </r>
       <r>   11.9136    1.0000 </r>
       <r>   11.9538    1.0000 </r>
       <r>   11.9871    1.0000 </r>
       <r>   12.0409    1.0000 </r>
       <r>   12.0811    1.0000 </r>
       <r>   12.1272    1.0000 </r>
       <r>   12.2074    1.0000 </r>
       <r>   12.2687    1.0000 </r>
       <r>   12.2844    1.0000 </r>
       <r>   12.3347    1.0000 </r>
       <r>   12.4349    1.0000 </r>
       <r>   12.8315    1.0000 </r>
       <r>   12.8753    1.0000 </r>
       <r>   13.0158    1.0000 </r>
       <r>   13.0566    1.0000 </r>
       <r>   13.1153    1.0000 </r>
       <r>   13.1907    1.0000 </r>
       <r>   13.4000    1.0000 </r>
       <r>   13.4492    1.0000 </r>
       <r>   13.7293    1.0000 </r>
       <r>   13.8082    1.0000 </r>
       <r>   13.8411    1.0000 </r>
       <r>   13.8798    1.0000 </r>
       <r>   13.9492    1.0000 </r>
       <r>   14.1185    1.0000 </r>
       <r>   14.1249    1.0000 </r>
       <r>   14.1777    1.0000 </r>
       <r>   14.2462    1.0000 </r>
       <r>   14.2658    1.0000 </r>
       <r>   14.2862    1.0000 </r>
       <r>   14.3120    1.0000 </r>
       <r>   14.3557    1.0000 </r>
       <r>   14.3914    1.0000 </r>
       <r>   14.4780    1.0000 </r>
       <r>   14.5326    1.0000 </r>
       <r>   14.5575    1.0000 </r>
       <r>   14.5877    1.0000 </r>
       <r>   14.6415    0.9951 </r>
       <r>   14.6963    0.8495 </r>
       <r>   14.7059    0.7777 </r>
       <r>   14.7430    0.3868 </r>
       <r>   14.8180    0.0080 </r>
       <r>   14.9142    0.0000 </r>
       <r>   14.9330    0.0000 </r>
       <r>   14.9688    0.0000 </r>
       <r>   15.0612    0.0000 </r>
       <r>   15.0695    0.0000 </r>
       <r>   15.1073    0.0000 </r>
       <r>   15.1440    0.0000 </r>
       <r>   15.2310    0.0000 </r>
       <r>   15.2428    0.0000 </r>
       <r>   15.2673    0.0000 </r>
       <r>   15.2856    0.0000 </r>
       <r>   15.3193    0.0000 </r>
       <r>   15.3644    0.0000 </r>
       <r>   15.4246    0.0000 </r>
       <r>   15.4453    0.0000 </r>
       <r>   15.5347    0.0000 </r>
       <r>   15.5549    0.0000 </r>
       <r>   15.5792    0.0000 </r>
       <r>   15.6289    0.0000 </r>
       <r>   15.6782    0.0000 </r>
       <r>   15.7200    0.0000 </r>
       <r>   15.7497    0.0000 </r>
       <r>   15.7718    0.0000 </r>
       <r>   15.7979    0.0000 </r>
       <r>   15.8302    0.0000 </r>
       <r>   15.9139    0.0000 </r>
       <r>   15.9295    0.0000 </r>
       <r>   15.9413    0.0000 </r>
       <r>   15.9749    0.0000 </r>
       <r>   16.0477    0.0000 </r>
       <r>   16.1379    0.0000 </r>
       <r>   16.1700    0.0000 </r>
       <r>   16.1969    0.0000 </r>
       <r>   16.2381    0.0000 </r>
       <r>   16.2678    0.0000 </r>
       <r>   16.3136    0.0000 </r>
       <r>   16.3708    0.0000 </r>
       <r>   16.4167    0.0000 </r>
       <r>   16.4443    0.0000 </r>
       <r>   16.4902    0.0000 </r>
       <r>   16.5421    0.0000 </r>
       <r>   16.5754    0.0000 </r>
       <r>   16.6777    0.0000 </r>
       <r>   16.7333    0.0000 </r>
       <r>   16.7610    0.0000 </r>
       <r>   16.7883    0.0000 </r>
       <r>   16.9255    0.0000 </r>
       <r>   16.9382    0.0000 </r>
       <r>   17.1000    0.0000 </r>
       <r>   17.9610    0.0000 </r>
       <r>   18.0530    0.0000 </r>
       <r>   18.1629    0.0000 </r>
       <r>   18.2114    0.0000 </r>
       <r>   18.3090    0.0000 </r>
       <r>   18.4243    0.0000 </r>
       <r>   18.6264    0.0000 </r>
       <r>   18.7547    0.0000 </r>
       <r>   18.7924    0.0000 </r>
       <r>   18.8202    0.0000 </r>
       <r>   18.8409    0.0000 </r>
       <r>   18.8682    0.0000 </r>
       <r>   18.9093    0.0000 </r>
       <r>   18.9592    0.0000 </r>
       <r>   18.9752    0.0000 </r>
       <r>   19.0203    0.0000 </r>
       <r>   19.0577    0.0000 </r>
       <r>   19.0938    0.0000 </r>
       <r>   19.1055    0.0000 </r>
       <r>   19.1376    0.0000 </r>
       <r>   19.1619    0.0000 </r>
       <r>   19.2095    0.0000 </r>
       <r>   19.2309    0.0000 </r>
       <r>   19.2757    0.0000 </r>
       <r>   19.3324    0.0000 </r>
       <r>   19.3720    0.0000 </r>
       <r>   19.3961    0.0000 </r>
       <r>   19.4126    0.0000 </r>
       <r>   19.4427    0.0000 </r>
       <r>   19.5160    0.0000 </r>
       <r>   19.5273    0.0000 </r>
       <r>   19.5798    0.0000 </r>
       <r>   19.6060    0.0000 </r>
       <r>   19.6286    0.0000 </r>
       <r>   19.6619    0.0000 </r>
       <r>   19.6811    0.0000 </r>
       <r>   19.7163    0.0000 </r>
       <r>   19.7454    0.0000 </r>
       <r>   19.7923    0.0000 </r>
       <r>   19.8234    0.0000 </r>
       <r>   19.8723    0.0000 </r>
       <r>   19.8977    0.0000 </r>
       <r>   19.9343    0.0000 </r>
       <r>   19.9938    0.0000 </r>
       <r>   20.0151    0.0000 </r>
       <r>   20.0787    0.0000 </r>
       <r>   20.1069    0.0000 </r>
       <r>   20.1142    0.0000 </r>
       <r>   20.1487    0.0000 </r>
       <r>   20.2097    0.0000 </r>
       <r>   20.2578    0.0000 </r>
       <r>   20.3166    0.0000 </r>
       <r>   20.5074    0.0000 </r>
      </set>
     </set>
     <set comment="spin 2">
      <set comment="kpoint 1">
       <r>   -2.9861    1.0000 </r>
       <r>   -1.8544    1.0000 </r>
       <r>   -1.7043    1.0000 </r>
       <r>   -1.6627    1.0000 </r>
       <r>   -1.5820    1.0000 </r>
       <r>   -1.4520    1.0000 </r>
       <r>   -1.3801    1.0000 </r>
       <r>   -0.5551    1.0000 </r>
       <r>   -0.5037    1.0000 </r>
       <r>   -0.3930    1.0000 </r>
       <r>   -0.3444    1.0000 </r>
       <r>   -0.3013    1.0000 </r>
       <r>   -0.2521    1.0000 </r>
       <r>   -0.2256    1.0000 </r>
       <r>   -0.1833    1.0000 </r>
       <r>   -0.1081    1.0000 </r>
       <r>   -0.0489    1.0000 </r>
       <r>    0.0524    1.0000 </r>
       <r>    0.2170    1.0000 </r>
       <r>    0.9803    1.0000 </r>
       <r>    1.0324    1.0000 </r>
       <r>    1.1004    1.0000 </r>
       <r>    1.1338    1.0000 </r>
       <r>    1.2085    1.0000 </r>
       <r>    1.2436    1.0000 </r>
       <r>    1.2975    1.0000 </r>
       <r>    1.3625    1.0000 </r>
       <r>    2.3339    1.0000 </r>
       <r>    2.3667    1.0000 </r>
       <r>    2.4606    1.0000 </r>
       <r>    2.5154    1.0000 </r>
       <r>    2.5698    1.0000 </r>
       <r>    2.6219    1.0000 </r>
       <r>    3.3740    1.0000 </r>
       <r>    3.4581    1.0000 </r>
       <r>    3.5000    1.0000 </r>
       <r>    3.5286    1.0000 </r>
       <r>    3.5776    1.0000 </r>
       <r>    3.6060    1.0000 </r>
       <r>    3.6390    1.0000 </r>
       <r>    3.6804    1.0000 </r>
       <r>    3.6872    1.0000 </r>
       <r>    3.7423    1.0000 </r>
       <r>    3.8004    1.0000 </r>
       <r>    3.8338    1.0000 </r>
       <r>    3.8786    1.0000 </r>
       <r>    3.8979    1.0000 </r>
       <r>    3.9122    1.0000 </r>
       <r>    3.9544    1.0000 </r>
       <r>    3.9930    1.0000 </r>
       <r>    4.0310    1.0000 </r>
       <r>    4.0660    1.0000 </r>
       <r>    4.1071    1.0000 </r>
       <r>    4.1358    1.0000 </r>
       <r>    4.1853    1.0000 </r>
       <r>    4.3112    1.0000 </r>
       <r>    4.3833    1.0000 </r>
       <r>    4.7707    1.0000 </r>
       <r>    4.8364    1.0000 </r>
       <r>    4.8958    1.0000 </r>
       <r>    4.9486    1.0000 </r>
       <r>    5.0097    1.0000 </r>
       <r>    5.0343    1.0000 </r>
       <r>    5.0714    1.0000 </r>
       <r>    5.0992    1.0000 </r>
       <r>    5.1432    1.0000 </r>
       <r>    5.1700    1.0000 </r>
       <r>    5.1914    1.0000 </r>
       <r>    5.1981    1.0000 </r>
       <r>    5.2271    1.0000 </r>
       <r>    5.2606    1.0000 </r>
       <r>    5.2915    1.0000 </r>
       <r>    5.3042    1.0000 </r>
       <r>    5.3942    1.0000 </r>
       <r>    5.4237    1.0000 </r>
       <r>    5.4566    1.0000 </r>
       <r>    5.4988    1.0000 </r>
       <r>    5.5040    1.0000 </r>
       <r>    5.5383    1.0000 </r>
       <r>    5.5880    1.0000 </r>
       <r>    5.6835    1.0000 </r>
       <r>    7.4846    1.0000 </r>
       <r>    7.4929    1.0000 </r>
       <r>    7.5252    1.0000 </r>
       <r>    7.5731    1.0000 </r>
       <r>    7.6583    1.0000 </r>
       <r>    7.6754    1.0000 </r>
       <r>    7.7602    1.0000 </r>
       <r>    7.7772    1.0000 </r>
       <r>    7.7918    1.0000 </r>
       <r>    7.8319    1.0000 </r>
       <r>    7.9469    1.0000 </r>
       <r>    8.0309    1.0000 </r>
       <r>    8.4099    1.0000 </r>
       <r>    8.4361    1.0000 </r>
       <r>    8.5455    1.0000 </r>
       <r>    8.6028    1.0000 </r>
       <r>    8.6612    1.0000 </r>
       <r>    8.7224    1.0000 </r>
       <r>    8.7521    1.0000 </r>
       <r>    8.8014    1.0000 </r>
       <r>    8.8212    1.0000 </r>
       <r>    8.8834    1.0000 </r>
       <r>    8.9098    1.0000 </r>
       <r>    8.9362    1.0000 </r>
       <r>    8.9744    1.0000 </r>
       <r>    8.9985    1.0000 </r>
       <r>    9.0481    1.0000 </r>
       <r>    9.0844    1.0000 </r>
       <r>    9.1420    1.0000 </r>
       <r>    9.2072    1.0000 </r>
       <r>    9.2401    1.0000 </r>
       <r>    9.2695    1.0000 </r>
       <r>    9.3298    1.0000 </r>
       <r>    9.3671    1.0000 </r>
       <r>    9.3804    1.0000 </r>
       <r>    9.4406    1.0000 </r>
       <r>    9.4887    1.0000 </r>
       <r>    9.5261    1.0000 </r>
       <r>    9.5468    1.0000 </r>
       <r>    9.5964    1.0000 </r>
       <r>    9.7176    1.0000 </r>
       <r>    9.7635    1.0000 </r>
       <r>   10.0522    1.0000 </r>
       <r>   10.0813    1.0000 </r>
       <r>   10.0956    1.0000 </r>
       <r>   10.1496    1.0000 </r>
       <r>   10.1795    1.0000 </r>
       <r>   10.2592    1.0000 </r>
       <r>   10.3276    1.0000 </r>
       <r>   10.3654    1.0000 </r>
       <r>   10.3940    1.0000 </r>
       <r>   10.4256    1.0000 </r>
       <r>   10.4630    1.0000 </r>
       <r>   10.4923    1.0000 </r>
       <r>   10.5512    1.0000 </r>
       <r>   10.5643    1.0000 </r>
       <r>   10.6213    1.0000 </r>
       <r>   10.6523    1.0000 </r>
       <r>   10.6842    1.0000 </r>
       <r>   10.7277    1.0000 </r>
       <r>   10.7509    1.0000 </r>
       <r>   10.7857    1.0000 </r>
       <r>   10.8296    1.0000 </r>
       <r>   10.8468    1.0000 </r>
       <r>   10.9820    1.0000 </r>
       <r>   11.0573    1.0000 </r>
       <r>   11.3869    1.0000 </r>
       <r>   11.4044    1.0000 </r>
       <r>   11.4401    1.0000 </r>
       <r>   11.5187    1.0000 </r>
       <r>   11.5216    1.0000 </r>
       <r>   11.5918    1.0000 </r>
       <r>   11.6199    1.0000 </r>
       <r>   11.7069    1.0000 </r>
       <r>   11.7392    1.0000 </r>
       <r>   11.7726    1.0000 </r>
       <r>   11.7901    1.0000 </r>
       <r>   11.8693    1.0000 </r>
       <r>   11.8843    1.0000 </r>
       <r>   11.9142    1.0000 </r>
       <r>   11.9543    1.0000 </r>
       <r>   11.9876    1.0000 </r>
       <r>   12.0414    1.0000 </r>
       <r>   12.0815    1.0000 </r>
       <r>   12.1278    1.0000 </r>
       <r>   12.2079    1.0000 </r>
       <r>   12.2691    1.0000 </r>
       <r>   12.2849    1.0000 </r>
       <r>   12.3352    1.0000 </r>
       <r>   12.4354    1.0000 </r>
       <r>   12.8320    1.0000 </r>
       <r>   12.8757    1.0000 </r>
       <r>   13.0163    1.0000 </r>
       <r>   13.0571    1.0000 </r>
       <r>   13.1157    1.0000 </r>
       <r>   13.1911    1.0000 </r>
       <r>   13.4004    1.0000 </r>
       <r>   13.4497    1.0000 </r>
       <r>   13.7298    1.0000 </r>
       <r>   13.8086    1.0000 </r>
       <r>   13.8416    1.0000 </r>
       <r>   13.8803    1.0000 </r>
       <r>   13.9497    1.0000 </r>
       <r>   14.1190    1.0000 </r>
       <r>   14.1254    1.0000 </r>
       <r>   14.1782    1.0000 </r>
       <r>   14.2466    1.0000 </r>
       <r>   14.2662    1.0000 </r>
       <r>   14.2866    1.0000 </r>
       <r>   14.3125    1.0000 </r>
       <r>   14.3562    1.0000 </r>
       <r>   14.3918    1.0000 </r>
       <r>   14.4786    1.0000 </r>
       <r>   14.5330    1.0000 </r>
       <r>   14.5579    1.0000 </r>
       <r>   14.5882    1.0000 </r>
       <r>   14.6420    0.9949 </r>
       <r>   14.6971    0.8441 </r>
       <r>   14.7068    0.7698 </r>
       <r>   14.7450    0.3663 </r>
       <r>   14.8185    0.0077 </r>
       <r>   14.9146    0.0000 </r>
       <r>   14.9335    0.0000 </r>
       <r>   14.9693    0.0000 </r>
       <r>   15.0616    0.0000 </r>
       <r>   15.0700    0.0000 </r>
[...]
       <r>    -1.0601     0.0000     7.0000 </r>
       <r>    -0.9739     0.0000     7.0000 </r>
       <r>    -0.8878     0.0000     7.0000 </r>
       <r>    -0.8016     0.0000     7.0000 </r>
       <r>    -0.7155     0.0000     7.0000 </r>
       <r>    -0.6293     0.2097     7.0181 </r>
       <r>    -0.5432     8.6539     7.7636 </r>
       <r>    -0.4571    13.6486     8.9393 </r>
       <r>    -0.3709    12.1527     9.9862 </r>
       <r>    -0.2848    21.7482    11.8597 </r>
       <r>    -0.1986    25.3978    14.0476 </r>
       <r>    -0.1125    16.4390    15.4637 </r>
       <r>    -0.0263    14.8281    16.7410 </r>
       <r>     0.0598     9.7654    17.5823 </r>
       <r>     0.1460     5.0604    18.0182 </r>
       <r>     0.2321     7.5140    18.6655 </r>
       <r>     0.3182     3.8587    18.9979 </r>
       <r>     0.4044     0.0243    19.0000 </r>
       <r>     0.4905     0.0000    19.0000 </r>
       <r>     0.5767     0.0000    19.0000 </r>
       <r>     0.6628     0.0000    19.0000 </r>
       <r>     0.7490     0.0000    19.0000 </r>
       <r>     0.8351     0.0002    19.0000 </r>
       <r>     0.9213     0.5597    19.0482 </r>
       <r>     1.0074    11.3080    20.0224 </r>
       <r>     1.0935    17.2524    21.5086 </r>
       <r>     1.1797    18.8611    23.1333 </r>
       <r>     1.2658    20.1737    24.8712 </r>
       <r>     1.3520    16.8198    26.3201 </r>
       <r>     1.4381     7.7034    26.9837 </r>
       <r>     1.5243     0.1889    27.0000 </r>
       <r>     1.6104     0.0000    27.0000 </r>
       <r>     1.6966     0.0000    27.0000 </r>
       <r>     1.7827     0.0000    27.0000 </r>
       <r>     1.8688     0.0000    27.0000 </r>
       <r>     1.9550     0.0000    27.0000 </r>
       <r>     2.0411     0.0000    27.0000 </r>
       <r>     2.1273     0.0000    27.0000 </r>
       <r>     2.2134     0.0039    27.0003 </r>
       <r>     2.2996     2.2560    27.1947 </r>
       <r>     2.3857    16.8963    28.6502 </r>
       <r>     2.4719    12.5890    29.7347 </r>
       <r>     2.5580    18.0331    31.2881 </r>
       <r>     2.6441    16.5980    32.7179 </r>
       <r>     2.7303     3.2616    32.9989 </r>
       <r>     2.8164     0.0126    33.0000 </r>
       <r>     2.9026     0.0000    33.0000 </r>
       <r>     2.9887     0.0000    33.0000 </r>
       <r>     3.0749     0.0000    33.0000 </r>
       <r>     3.1610     0.0000    33.0000 </r>
       <r>     3.2472     0.0019    33.0002 </r>
       <r>     3.3333     1.4467    33.1248 </r>
       <r>     3.4194    10.7393    34.0499 </r>
       <r>     3.5056    19.7697    35.7530 </r>
       <r>     3.5917    26.7431    38.0567 </r>
       <r>     3.6779    31.1816    40.7429 </r>
       <r>     3.7640    24.8435    42.8830 </r>
       <r>     3.8502    23.8484    44.9374 </r>
       <r>     3.9363    34.6655    47.9236 </r>
       <r>     4.0225    27.5023    50.2928 </r>
       <r>     4.1086    27.0719    52.6249 </r>
       <r>     4.1947    22.3600    54.5511 </r>
       <r>     4.2809     7.4684    55.1945 </r>
       <r>     4.3670    12.4416    56.2662 </r>
       <r>     4.4532     8.2392    56.9760 </r>
       <r>     4.5393     0.2786    57.0000 </r>
       <r>     4.6255     0.0003    57.0000 </r>
       <r>     4.7116     0.5517    57.0475 </r>
       <r>     4.7978    10.1019    57.9178 </r>
       <r>     4.8839    16.1795    59.3115 </r>
       <r>     4.9700    18.1758    60.8773 </r>
       <r>     5.0562    25.6836    63.0898 </r>
       <r>     5.1423    30.5460    65.7212 </r>
       <r>     5.2285    42.1504    69.3522 </r>
       <r>     5.3146    34.2492    72.3026 </r>
       <r>     5.4008    18.4211    73.8894 </r>
       <r>     5.4869    30.5553    76.5216 </r>
       <r>     5.5731    30.2918    79.1311 </r>
       <r>     5.6592    12.6878    80.2241 </r>
       <r>     5.7453     8.5430    80.9600 </r>
       <r>     5.8315     0.4643    81.0000 </r>
       <r>     5.9176     0.0002    81.0000 </r>
       <r>     6.0038     0.0000    81.0000 </r>
       <r>     6.0899     0.0000    81.0000 </r>
       <r>     6.1761     0.0000    81.0000 </r>
       <r>     6.2622     0.0000    81.0000 </r>
       <r>     6.3484     0.0000    81.0000 </r>
       <r>     6.4345     0.0000    81.0000 </r>
       <r>     6.5206     0.0000    81.0000 </r>
       <r>     6.6068     0.0000    81.0000 </r>
       <r>     6.6929     0.0000    81.0000 </r>
       <r>     6.7791     0.0000    81.0000 </r>
       <r>     6.8652     0.0000    81.0000 </r>
       <r>     6.9514     0.0000    81.0000 </r>
       <r>     7.0375     0.0000    81.0000 </r>
       <r>     7.1237     0.0000    81.0000 </r>
       <r>     7.2098     0.0000    81.0000 </r>
       <r>     7.2959     0.0000    81.0000 </r>
       <r>     7.3821     0.0320    81.0028 </r>
       <r>     7.4682     7.1589    81.6195 </r>
       <r>     7.5544    27.9880    84.0305 </r>
       <r>     7.6405    16.3843    85.4419 </r>
       <r>     7.7267    20.2024    87.1822 </r>
       <r>     7.8128    30.3125    89.7935 </r>
       <r>     7.8990    14.6687    91.0571 </r>
       <r>     7.9851    10.4508    91.9574 </r>
       <r>     8.0712    10.6260    92.8727 </r>
       <r>     8.1574     1.4752    92.9998 </r>
       <r>     8.2435     0.0020    93.0000 </r>
       <r>     8.3297     0.1503    93.0129 </r>
       <r>     8.4158     9.7158    93.8499 </r>
       <r>     8.5020    14.2268    95.0755 </r>
       <r>     8.5881    13.5679    96.2443 </r>
       <r>     8.6743    17.1588    97.7224 </r>
       <r>     8.7604    21.9741    99.6153 </r>
       <r>     8.8465    25.9323   101.8493 </r>
       <r>     8.9327    28.0947   104.2695 </r>
       <r>     9.0188    29.8145   106.8378 </r>
       <r>     9.1050    22.9403   108.8140 </r>
       <r>     9.1911    17.6857   110.3375 </r>
       <r>     9.2773    25.0162   112.4925 </r>
       <r>     9.3634    24.6212   114.6135 </r>
       <r>     9.4496    24.4129   116.7166 </r>
       <r>     9.5357    25.7136   118.9316 </r>
       <r>     9.6218    21.0713   120.7468 </r>
       <r>     9.7080     8.1655   121.4502 </r>
       <r>     9.7941    15.5714   122.7916 </r>
       <r>     9.8803     2.4133   122.9995 </r>
       <r>     9.9664     0.1022   123.0083 </r>
       <r>    10.0526     9.5074   123.8273 </r>
       <r>    10.1387    29.0838   126.3327 </r>
       <r>    10.2249    19.9498   128.0513 </r>
       <r>    10.3110    14.7239   129.3197 </r>
       <r>    10.3971    26.1457   131.5720 </r>
       <r>    10.4833    29.3089   134.0968 </r>
       <r>    10.5694    25.8029   136.3196 </r>
       <r>    10.6556    26.4392   138.5972 </r>
       <r>    10.7417    29.1439   141.1078 </r>
       <r>    10.8279    29.4348   143.6434 </r>
       <r>    10.9140    15.6320   144.9900 </r>
       <r>    11.0002     8.8119   145.7491 </r>
       <r>    11.0863    12.1066   146.7920 </r>
       <r>    11.1724     2.4078   146.9994 </r>
       <r>    11.2586     0.0084   147.0002 </r>
       <r>    11.3447     1.9248   147.1660 </r>
       <r>    11.4309    22.1727   149.0760 </r>
       <r>    11.5170    21.5622   150.9335 </r>
       <r>    11.6032    23.1521   152.9279 </r>
       <r>    11.6893    16.7737   154.3729 </r>
       <r>    11.7755    26.9928   156.6982 </r>
       <r>    11.8616    23.4680   158.7198 </r>
       <r>    11.9477    30.4175   161.3401 </r>
       <r>    12.0339    23.9215   163.4008 </r>
       <r>    12.1200    21.6855   165.2689 </r>
       <r>    12.2062    14.4976   166.5178 </r>
       <r>    12.2923    22.2113   168.4312 </r>
       <r>    12.3785    17.4943   169.9382 </r>
       <r>    12.4646     9.9551   170.7958 </r>
       <r>    12.5508     2.3641   170.9995 </r>
       <r>    12.6369     0.0064   171.0000 </r>
       <r>    12.7230     0.0120   171.0010 </r>
       <r>    12.8092     3.3479   171.2894 </r>
       <r>    12.8953    16.0758   172.6743 </r>
       <r>    12.9815     5.8428   173.1776 </r>
       <r>    13.0676    16.8754   174.6313 </r>
       <r>    13.1538    15.9049   176.0015 </r>
       <r>    13.2399    10.6161   176.9160 </r>
       <r>    13.3261     1.1832   177.0179 </r>
       <r>    13.4122     8.7916   177.7752 </r>
       <r>    13.4983    13.2066   178.9129 </r>
       <r>    13.5845     1.0103   179.0000 </r>
       <r>    13.6706     0.5476   179.0471 </r>
       <r>    13.7568     9.4007   179.8569 </r>
       <r>    13.8429    19.0162   181.4951 </r>
       <r>    13.9291    19.6629   183.1889 </r>
       <r>    14.0152     9.0741   183.9706 </r>
       <r>    14.1014     6.9780   184.5717 </r>
       <r>    14.1875    23.5553   186.6009 </r>
       <r>    14.2736    26.2323   188.8607 </r>
       <r>    14.3598    31.8971   191.6084 </r>
       <r>    14.4459    17.5125   193.1170 </r>
       <r>    14.5321    18.5352   194.7137 </r>
       <r>    14.6182    26.7740   197.0202 </r>
       <r>    14.7044    24.6185   199.1409 </r>
       <r>    14.7905    22.7733   201.1027 </r>
       <r>    14.8767    12.1546   202.1498 </r>
       <r>    14.9628    23.1203   204.1414 </r>
       <r>    15.0489    17.7961   205.6745 </r>
       <r>    15.1351    28.4847   208.1283 </r>
       <r>    15.2212    19.0205   209.7668 </r>
       <r>    15.3074    37.0824   212.9612 </r>
       <r>    15.3935    23.9861   215.0275 </r>
       <r>    15.4797    21.1064   216.8457 </r>
       <r>    15.5658    22.7702   218.8072 </r>
       <r>    15.6520    25.0903   220.9686 </r>
       <r>    15.7381    26.1782   223.2237 </r>
       <r>    15.8242    33.5320   226.1123 </r>
       <r>    15.9104    21.3595   227.9523 </r>
       <r>    15.9965    31.8564   230.6966 </r>
       <r>    16.0827    13.9518   231.8985 </r>
       <r>    16.1688    18.8517   233.5224 </r>
       <r>    16.2550    28.9674   236.0178 </r>
       <r>    16.3411    22.6566   237.9696 </r>
       <r>    16.4273    22.3992   239.8991 </r>
       <r>    16.5134    23.8407   241.9529 </r>
       <r>    16.5995    20.3688   243.7075 </r>
       <r>    16.6857    11.3607   244.6862 </r>
       <r>    16.7718    24.3674   246.7853 </r>
       <r>    16.8580    14.2164   248.0100 </r>
       <r>    16.9441    14.4818   249.2575 </r>
       <r>    17.0303     8.8175   250.0171 </r>
       <r>    17.1164     7.6188   250.6734 </r>
       <r>    17.2026     3.7689   250.9980 </r>
       <r>    17.2887     0.0227   251.0000 </r>
       <r>    17.3748     0.0000   251.0000 </r>
       <r>    17.4610     0.0000   251.0000 </r>
       <r>    17.5471     0.0000   251.0000 </r>
       <r>    17.6333     0.0000   251.0000 </r>
       <r>    17.7194     0.0000   251.0000 </r>
       <r>    17.8056     0.0001   251.0000 </r>
       <r>    17.8917     0.2810   251.0242 </r>
       <r>    17.9779     7.7792   251.6943 </r>
       <r>    18.0640    10.7043   252.6165 </r>
       <r>    18.1501     8.9880   253.3907 </r>
       <r>    18.2363    15.8354   254.7549 </r>
       <r>    18.3224    10.3162   255.6436 </r>
       <r>    18.4086     7.8627   256.3209 </r>
       <r>    18.4947     7.6066   256.9762 </r>
       <r>    18.5809     1.3995   257.0967 </r>
       <r>    18.6670     9.0758   257.8785 </r>
       <r>    18.7532     8.8644   258.6422 </r>
       <r>    18.8393    30.8445   261.2992 </r>
       <r>    18.9254    29.6559   263.8539 </r>
       <r>    19.0116    28.1217   266.2765 </r>
       <r>    19.0977    31.1687   268.9615 </r>
       <r>    19.1839    34.5181   271.9350 </r>
       <r>    19.2700    27.2900   274.2859 </r>
       <r>    19.3562    22.6941   276.2409 </r>
       <r>    19.4423    34.2194   279.1887 </r>
       <r>    19.5285    23.5475   281.2172 </r>
       <r>    19.6146    30.8419   283.8740 </r>
       <r>    19.7007    35.9125   286.9677 </r>
       <r>    19.7869    28.5629   289.4282 </r>
       <r>    19.8730    25.9511   291.6638 </r>
       <r>    19.9592    26.1466   293.9162 </r>
       <r>    20.0453    25.9127   296.1484 </r>
       <r>    20.1315    34.3494   299.1074 </r>
       <r>    20.2176    20.0197   300.8320 </r>
       <r>    20.3038    13.6605   302.0088 </r>
       <r>    20.3899    10.0279   302.8726 </r>
       <r>    20.4760     5.9485   303.3850 </r>
       <r>    20.5622     6.9531   303.9840 </r>
       <r>    20.6483     0.1856   304.0000 </r>
       <r>    20.7345     0.0000   304.0000 </r>
       <r>    20.8206     0.0000   304.0000 </r>
       <r>    20.9068     0.0000   304.0000 </r>
       <r>    20.9929     0.0000   304.0000 </r>
       <r>    21.0791     0.0000   304.0000 </r>
       <r>    21.1652     0.0000   304.0000 </r>
       <r>    21.2513     0.0000   304.0000 </r>
       <r>    21.3375     0.0000   304.0000 </r>
       <r>    21.4236     0.0000   304.0000 </r>
       <r>    21.5098     0.0000   304.0000 </r>
       <r>    21.5959     0.0000   304.0000 </r>
       <r>    21.6821     0.0000   304.0000 </r>
      </set>
     </set>
    </array>
   </total>
  </dos>
 </calculation>
 <structure name="finalpos" >
  <crystal>
   <varray name="basis" >
    <v>      10.21149500       0.00000000       0.00000000 </v>
    <v>       0.00000000      10.21149500       0.00000000 </v>
    <v>       0.00000000       0.00000000      10.21149500 </v>
   </varray>
   <i name="volume">   1064.79986425 </i>
   <varray name="rec_basis" >
    <v>       0.09792885       0.00000000       0.00000000 </v>
    <v>       0.00000000       0.09792885       0.00000000 </v>
    <v>       0.00000000       0.00000000       0.09792885 </v>
   </varray>
  </crystal>
  <varray name="positions" >
   <v>       0.05830000       0.21383200       0.05287360 </v>
   <v>       0.17441900       0.69339400       0.50406200 </v>
   <v>       0.60145900       0.79139700       0.92197900 </v>
   <v>       0.25266300       0.42468100       0.30417800 </v>
   <v>       0.15169100       0.22454100       0.37226600 </v>
   <v>       0.60634200       0.29625300       0.21046300 </v>
   <v>       0.55636500       0.40997500       0.44039600 </v>
   <v>       0.87323500       0.33336200       0.90970000 </v>
   <v>       0.82260100       0.33164300       0.12653000 </v>
   <v>       0.88082600       0.55646300       0.53550500 </v>
   <v>       0.82610400       0.63242900       0.29511100 </v>
   <v>       0.41156300       0.26653800       0.35382500 </v>
   <v>       0.72154700       0.00360000       0.46866700 </v>
   <v>       0.57562000       0.94041980       0.12946700 </v>
   <v>       0.79610400       0.85987600       0.02820570 </v>
   <v>       0.13885700       0.87858000       0.06634520 </v>
   <v>       0.06600480       0.82299800       0.66324700 </v>
   <v>       0.64948500       0.02134010       0.91666900 </v>
   <v>       0.90403800       0.54698900       0.10346500 </v>
   <v>       0.55476600       0.08098950       0.32482600 </v>
   <v>       0.96252900       0.77531700       0.16319900 </v>
   <v>       0.58856500       0.61891400       0.77635000 </v>
   <v>       0.88639100       0.91638300       0.58148400 </v>
   <v>       0.95856400       0.56431200       0.86224300 </v>
   <v>       0.65065300       0.82709700       0.69314900 </v>
   <v>       0.66463700       0.73558700       0.14744700 </v>
   <v>       0.49902900       0.72028400       0.55737100 </v>
   <v>       0.85053900       0.93019900       0.80574900 </v>
   <v>       0.46122900       0.14983600       0.90662500 </v>
   <v>       0.40351500       0.74230700       0.79620700 </v>
   <v>       0.95263400       0.00533000       0.14218500 </v>
   <v>       0.41902300       0.91530200       0.94581000 </v>
   <v>       0.14914500       0.85463500       0.30298600 </v>
   <v>       0.58278600       0.83825000       0.34509600 </v>
   <v>       0.62116000       0.27567700       0.75765800 </v>
   <v>       0.50313400       0.45087900       0.65523500 </v>
   <v>       0.14167800       0.47098500       0.50512500 </v>
   <v>       0.95634100       0.37754400       0.67047800 </v>
   <v>       0.50666400       0.61635300       0.03273000 </v>
   <v>       0.15060800       0.07793830       0.21255200 </v>
   <v>       0.09773240       0.41283700       0.95192900 </v>
   <v>       0.31801100       0.59636800       0.64346600 </v>
   <v>       0.74483700       0.75548500       0.48535600 </v>
   <v>       0.77263400       0.65593800       0.94397000 </v>
   <v>       0.20937200       0.64645100       0.23720200 </v>
   <v>       0.43857600       0.14128100       0.14448800 </v>
   <v>       0.35644600       0.81973600       0.40160900 </v>
   <v>       0.19665000       0.61197600       0.84348100 </v>
   <v>       0.45160000       0.48376700       0.22113600 </v>
   <v>       0.96546300       0.33961600       0.43148400 </v>
   <v>       0.20432600       0.40142100       0.73265900 </v>
   <v>       0.35910800       0.58237500       0.41461800 </v>
   <v>       0.08536540       0.23281900       0.81523500 </v>
   <v>       0.26437500       0.06951500       0.00507000 </v>
   <v>       0.82952400       0.18573300       0.75556900 </v>
   <v>       0.11341000       0.23574000       0.58344400 </v>
   <v>       0.65800700       0.23589200       0.99508840 </v>
   <v>       0.03002660       0.55711500       0.33541900 </v>
   <v>       0.14529700       0.99419346       0.51378900 </v>
   <v>       0.85038300       0.70765700       0.70907200 </v>
   <v>       0.63758200       0.46067600       0.93276500 </v>
   <v>       0.99464300       0.78236100       0.88970000 </v>
   <v>       0.46478900       0.98776400       0.75127500 </v>
   <v>       0.96359400       0.99637100       0.37368100 </v>
   <v>       0.33640000       0.91987700       0.16890600 </v>
   <v>       0.39014800       0.48140500       0.86068600 </v>
   <v>       0.20979200       0.86203600       0.83362600 </v>
   <v>       0.94039400       0.19989300       0.26146200 </v>
   <v>       0.48832200       0.97212000       0.51878500 </v>
   <v>       0.43513000       0.71194500       0.22624400 </v>
   <v>       0.90691700       0.14781300       0.53820800 </v>
   <v>       0.67842300       0.51280200       0.15379100 </v>
   <v>       0.30704400       0.72102000       0.02768830 </v>
   <v>       0.75027400       0.20365600       0.38397100 </v>
   <v>       0.73975800       0.10443000       0.17764000 </v>
   <v>       0.33435200       0.36708700       0.53174500 </v>
   <v>       0.67860700       0.04749630       0.67898300 </v>
   <v>       0.39920200       0.27002000       0.72797700 </v>
   <v>       0.78143700       0.49312400       0.75472500 </v>
   <v>       0.46961600       0.35170300       0.03212020 </v>
   <v>       0.28536400       0.28725800       0.91555500 </v>
   <v>       0.02598300       0.04299660       0.70165800 </v>
   <v>       0.04712550       0.61088800       0.66731900 </v>
   <v>       0.56596400       0.19559200       0.53532700 </v>
   <v>       0.04921960       0.01599000       0.92361200 </v>
   <v>       0.78516300       0.88406800       0.27005700 </v>
   <v>       0.75701200       0.33267900       0.58084900 </v>
   <v>       0.10066300       0.63907600       0.04296030 </v>
   <v>       0.32888000       0.13784000       0.55143600 </v>
   <v>       0.25171700       0.08087940       0.76249700 </v>
   <v>       0.66705000       0.56460200       0.56802700 </v>
   <v>       0.96859000       0.76421000       0.41432900 </v>
   <v>       0.25259800       0.26688000       0.15973200 </v>
   <v>       0.30275300       0.85679400       0.62649000 </v>
   <v>       0.76803500       0.42877700       0.35144600 </v>
   <v>       0.32903300       0.05167690       0.35290000 </v>
   <v>       0.84953700       0.10247900       0.96906700 </v>
   <v>       0.60300100       0.61835400       0.35849900 </v>
   <v>       0.06402000       0.39049800       0.19205800 </v>
   <v>       0.26990600       0.47652500       0.08065630 </v>
  </varray>
 </structure>
</modeling>
