unknown system                          
           1
    10.211495    0.000000    0.000000
     0.000000   10.211495    0.000000
     0.000000    0.000000   10.211495
   Si
 100
Direct configuration=     1
   0.05830000  0.21383200  0.05287360
   0.17441900  0.69339400  0.50406200
   0.60145900  0.79139700  0.92197900
   0.25266300  0.42468100  0.30417800
   0.15169100  0.22454100  0.37226600
   0.60634200  0.29625300  0.21046300
   0.55636500  0.40997500  0.44039600
   0.87323500  0.33336200  0.90970000
   0.82260100  0.33164300  0.12653000
   0.88082600  0.55646300  0.53550500
   0.82610400  0.63242900  0.29511100
   0.41156300  0.26653800  0.35382500
   0.72154700  0.00360000  0.46866700
   0.57562000  0.94041980  0.12946700
   0.79610400  0.85987600  0.02820570
   0.13885700  0.87858000  0.06634520
   0.06600480  0.82299800  0.66324700
   0.64948500  0.02134010  0.91666900
   0.90403800  0.54698900  0.10346500
   0.55476600  0.08098950  0.32482600
   0.96252900  0.77531700  0.16319900
   0.58856500  0.61891400  0.77635000
   0.88639100  0.91638300  0.58148400
   0.95856400  0.56431200  0.86224300
   0.65065300  0.82709700  0.69314900
   0.66463700  0.73558700  0.14744700
   0.49902900  0.72028400  0.55737100
   0.85053900  0.93019900  0.80574900
   0.46122900  0.14983600  0.90662500
   0.40351500  0.74230700  0.79620700
   0.95263400  0.00533000  0.14218500
   0.41902300  0.91530200  0.94581000
   0.14914500  0.85463500  0.30298600
   0.58278600  0.83825000  0.34509600
   0.62116000  0.27567700  0.75765800
   0.50313400  0.45087900  0.65523500
   0.14167800  0.47098500  0.50512500
   0.95634100  0.37754400  0.67047800
   0.50666400  0.61635300  0.03273000
   0.15060800  0.07793830  0.21255200
   0.09773240  0.41283700  0.95192900
   0.31801100  0.59636800  0.64346600
   0.74483700  0.75548500  0.48535600
   0.77263400  0.65593800  0.94397000
   0.20937200  0.64645100  0.23720200
   0.43857600  0.14128100  0.14448800
   0.35644600  0.81973600  0.40160900
   0.19665000  0.61197600  0.84348100
   0.45160000  0.48376700  0.22113600
   0.96546300  0.33961600  0.43148400
   0.20432600  0.40142100  0.73265900
   0.35910800  0.58237500  0.41461800
   0.08536540  0.23281900  0.81523500
   0.26437500  0.06951500  0.00507000
   0.82952400  0.18573300  0.75556900
   0.11341000  0.23574000  0.58344400
   0.65800700  0.23589200  0.99508840
   0.03002660  0.55711500  0.33541900
   0.14529700  0.99419346  0.51378900
   0.85038300  0.70765700  0.70907200
   0.63758200  0.46067600  0.93276500
   0.99464300  0.78236100  0.88970000
   0.46478900  0.98776400  0.75127500
   0.96359400  0.99637100  0.37368100
   0.33640000  0.91987700  0.16890600
   0.39014800  0.48140500  0.86068600
   0.20979200  0.86203600  0.83362600
   0.94039400  0.19989300  0.26146200
   0.48832200  0.97212000  0.51878500
   0.43513000  0.71194500  0.22624400
   0.90691700  0.14781300  0.53820800
   0.67842300  0.51280200  0.15379100
   0.30704400  0.72102000  0.02768830
   0.75027400  0.20365600  0.38397100
   0.73975800  0.10443000  0.17764000
   0.33435200  0.36708700  0.53174500
   0.67860700  0.04749630  0.67898300
   0.39920200  0.27002000  0.72797700
   0.78143700  0.49312400  0.75472500
   0.46961600  0.35170300  0.03212020
   0.28536400  0.28725800  0.91555500
   0.02598300  0.04299660  0.70165800
   0.04712550  0.61088800  0.66731900
   0.56596400  0.19559200  0.53532700
   0.04921960  0.01599000  0.92361200
   0.78516300  0.88406800  0.27005700
   0.75701200  0.33267900  0.58084900
   0.10066300  0.63907600  0.04296030
   0.32888000  0.13784000  0.55143600
   0.25171700  0.08087940  0.76249700
   0.66705000  0.56460200  0.56802700
   0.96859000  0.76421000  0.41432900
   0.25259800  0.26688000  0.15973200
   0.30275300  0.85679400  0.62649000
   0.76803500  0.42877700  0.35144600
   0.32903300  0.05167690  0.35290000
   0.84953700  0.10247900  0.96906700
   0.60300100  0.61835400  0.35849900
   0.06402000  0.39049800  0.19205800
   0.26990600  0.47652500  0.08065630
