BEGIN_CFG
 Size
    16
 Supercell
         6.600000      0.000000      0.000000
         0.000000      6.600000      0.000000
         0.000000      0.000000      6.600000
 AtomData:  id type       cartes_x      cartes_y      cartes_z           fx          fy          fz
             1    0      -0.002565     -0.000136     -0.000015     0.007636   -0.000006    0.001780
             2    0      -0.001282      0.001632      3.300896     0.006337   -0.005006   -0.002239
             3    0      -0.001146      3.299833      0.000368     0.006801    0.001426   -0.000454
             4    0      -0.000566      3.299514      3.299892    -0.001707    0.005006    0.000391
             5    0       3.299033      0.000496      0.000851     0.000340   -0.004186   -0.003961
             6    0       3.300550     -0.001972      3.299279    -0.004041    0.002625    0.004741
             7    0       3.300483      3.297803     -0.000235    -0.003358    0.008260   -0.003160
             8    0       3.298512      3.297898      3.298455     0.005963    0.003617    0.006337
             9    0       1.651296      1.651223      1.650541    -0.003119   -0.003276    0.003252
            10    0       1.650404      1.650489      4.952685    -0.001559   -0.006104   -0.008350
            11    0       1.650995      4.951291      1.648654    -0.004620   -0.001736    0.001492
            12    0       1.651393      4.948755      4.948759    -0.000620    0.006896    0.001396
            13    0       4.951297      1.651450      1.648414    -0.002206   -0.005103    0.006859
            14    0       4.949619      1.650311      4.951169    -0.000583    0.001885   -0.006152
            15    0       4.950048      4.949624      1.649735     0.001780    0.001956    0.004615
            16    0       4.951929      4.951789      4.950551    -0.007045   -0.006254   -0.006546
 Energy
       -119.446710617001
 PlusStress:  xx          yy          zz          yz          xz          xy
        27.25061    27.25058    27.25054    -0.00023     0.00001    -0.00006
 Feature   MV_grade	3.703683
END_CFG

BEGIN_CFG
 Size
    16
 Supercell
         6.600000      0.000000      0.000000
         0.000000      6.600000      0.000000
         0.000000      0.000000      6.600000
 AtomData:  id type       cartes_x      cartes_y      cartes_z           fx          fy          fz
             1    0      -0.004258     -0.000294      0.000148     0.017631   -0.001474    0.002245
             2    0      -0.001546      0.004118      3.301606     0.011448   -0.013642   -0.004804
             3    0      -0.001586      3.299626      0.001601     0.009978    0.004888   -0.006627
             4    0      -0.001940      3.298789      3.299270     0.003278    0.011173    0.006165
             5    0       3.299095      0.001056      0.001609    -0.004787   -0.014156   -0.008784
             6    0       3.300965     -0.002747      3.298774    -0.007008    0.003944    0.008006
             7    0       3.300785      3.296897     -0.000324    -0.006408    0.019742   -0.005802
             8    0       3.297329      3.296380      3.297392     0.006464    0.009708    0.010437
             9    0       1.653385      1.651636      1.650822    -0.009891   -0.005557    0.004996
            10    0       1.651330      1.650190      4.953856    -0.006130   -0.007335   -0.014365
            11    0       1.652286      4.952038      1.646396    -0.010047   -0.003056    0.008496
            12    0       1.651861      4.948382      4.948806    -0.003648    0.007443   -0.000273
            13    0       4.951766      1.651860      1.647983    -0.001260   -0.009669    0.016239
            14    0       4.949131      1.650269      4.952246     0.003201    0.003481   -0.015081
            15    0       4.950153      4.949534      1.650625     0.003734    0.005485    0.002604
            16    0       4.951244      4.952265      4.949191    -0.006555   -0.010977   -0.003452
 Energy
       -119.446504104034
 PlusStress:  xx          yy          zz          yz          xz          xy
        27.24961    27.24930    27.24942    -0.00070     0.00017    -0.00013
 Feature   MV_grade	14.267429
END_CFG

BEGIN_CFG
 Size
    16
 Supercell
         6.600000      0.000000      0.000000
         0.000000      6.600000      0.000000
         0.000000      0.000000      6.600000
 AtomData:  id type       cartes_x      cartes_y      cartes_z
             1    0       0.000000      0.000000      0.000000
             2    0       0.000000      0.000000      3.300000
             3    0       0.000000      3.300000      0.000000
             4    0       0.000000      3.300000      3.300000
             5    0       3.300000      0.000000      0.000000
             6    0       3.300000      0.000000      3.300000
             7    0       3.300000      3.300000      0.000000
             8    0       3.300000      3.300000      3.300000
             9    0       1.650000      1.650000      1.650000
            10    0       1.650000      1.650000      4.950000
            11    0       1.650000      4.950000      1.650000
            12    0       1.650000      4.950000      4.950000
            13    0       4.950000      1.650000      1.650000
            14    0       4.950000      1.650000      4.950000
            15    0       4.950000      4.950000      1.650000
            16    0       4.950000      4.950000      4.950000
 Feature   MV_grade	3.766805
END_CFG

