ITEM: TIMESTEP
0
ITEM: NUMBER OF ATOMS
16
ITEM: BOX BOUNDS xy xz yz pp pp pp
0.0000000000000000e+00 6.5999999999999996e+00 0.0000000000000000e+00
0.0000000000000000e+00 6.5999999999999996e+00 0.0000000000000000e+00
0.0000000000000000e+00 6.5999999999999996e+00 0.0000000000000000e+00
ITEM: ATOMS id type x y z fx fy fz
1 1 0 0 0 -2.35897 -0.253686 0.0521317
2 1 0 0 3.3 -1.51942 0.402077 -1.98896
3 1 0 3.3 0 -2.3877 -3.10209 2.60662
4 1 0 3.3 3.3 -1.09572 -0.341442 -0.439181
5 1 3.3 0 0 -3.52657 -2.61998 2.19152
6 1 3.3 0 3.3 1.76933 -0.724476 3.60202
7 1 3.3 3.3 0 -3.60434 2.42381 -0.0942724
8 1 3.3 3.3 3.3 -3.26782 -0.290637 -1.37116
9 1 1.65 1.65 1.65 0.942536 -1.17235 1.93972
10 1 1.65 1.65 4.95 -1.63381 1.83097 1.22436
11 1 1.65 4.95 1.65 1.21732 1.12886 -3.33872
12 1 1.65 4.95 4.95 3.93225 -3.81672 -1.34598
13 1 4.95 1.65 1.65 3.28032 0.768317 -2.06498
14 1 4.95 1.65 4.95 2.74356 2.15672 -3.58512
15 1 4.95 4.95 1.65 2.36741 0.577136 2.39282
16 1 4.95 4.95 4.95 3.14162 3.03349 0.219182
ITEM: TIMESTEP
1000
ITEM: NUMBER OF ATOMS
16
ITEM: BOX BOUNDS xy xz yz pp pp pp
0.0000000000000000e+00 6.5999999999999996e+00 0.0000000000000000e+00
0.0000000000000000e+00 6.5999999999999996e+00 0.0000000000000000e+00
0.0000000000000000e+00 6.5999999999999996e+00 0.0000000000000000e+00
ITEM: ATOMS id type x y z fx fy fz
1 1 0.0898751 6.43271 6.67313 -0.0905695 2.42558 0.430742
2 1 -0.0225727 6.56617 3.25297 -3.13525 -1.56752 -0.928446
3 1 -0.0281621 3.28621 6.61282 3.48944 -3.15956 -1.21552
4 1 -0.0940678 3.26944 3.30713 1.62775 4.25817 -1.89164
5 1 3.43393 0.024353 6.63264 -3.77986 2.4447 -2.21809
6 1 3.31515 6.63437 3.40457 3.59373 -2.70514 -0.261903
7 1 3.2982 3.37933 0.046528 -3.59693 -2.61531 -1.45472
8 1 3.25853 3.39234 3.37184 -3.14631 -1.64302 3.13448
9 1 1.72954 1.65286 1.58806 2.11798 -3.07399 0.278243
10 1 1.74161 1.6699 4.9127 0.799825 4.04699 0.485783
11 1 1.51162 4.92874 1.71784 1.28792 1.55066 2.06823
12 1 1.58634 4.95192 5.01084 -3.59358 -3.32488 1.18634
13 1 4.96768 1.82023 1.63586 0.631132 1.5725 -0.118339
14 1 5.07129 1.53661 4.88201 -1.96546 2.62965 -3.04584
15 1 4.82265 4.9552 1.558 3.50478 1.45326 4.17372
16 1 4.91839 4.89963 4.79306 2.25541 -2.29209 -0.623036
ITEM: TIMESTEP
2000
ITEM: NUMBER OF ATOMS
16
ITEM: BOX BOUNDS xy xz yz pp pp pp
0.0000000000000000e+00 6.5999999999999996e+00 0.0000000000000000e+00
0.0000000000000000e+00 6.5999999999999996e+00 0.0000000000000000e+00
0.0000000000000000e+00 6.5999999999999996e+00 0.0000000000000000e+00
ITEM: ATOMS id type x y z fx fy fz
1 1 0.0479526 6.62345 0.0495562 -1.11601 -1.21428 -0.894311
2 1 0.0612184 6.65298 3.24607 -0.14765 1.48192 -0.112231
3 1 0.0725 3.3222 0.137249 0.532239 -2.36529 -4.03008
4 1 0.0657705 3.23321 3.44049 0.396184 -0.97779 0.398734
5 1 3.26365 0.0295793 6.43216 0.269029 0.943115 -3.22056
6 1 3.31981 0.00721043 3.2436 0.157005 0.112302 1.59905
7 1 3.17389 3.33155 0.0199328 -2.87702 -3.02295 -3.47849
8 1 3.31769 3.2803 3.21469 -0.190772 -0.427126 3.03243
9 1 1.6239 1.60212 1.72139 2.02382 0.211304 0.428819
10 1 1.73554 1.68138 5.05883 -3.10815 -2.03348 -2.96005
11 1 1.67312 4.95709 1.6585 2.33602 3.45411 3.08867
12 1 1.64707 5.01981 4.97225 0.0745227 -3.84943 2.16098
13 1 4.77083 1.66163 1.72572 1.24309 1.22641 -2.87835
14 1 4.93555 1.61684 4.98532 -0.327264 4.12846 1.71801
15 1 4.90622 4.89491 1.51554 -2.44093 3.01516 0.925761
16 1 4.9853 4.88574 4.77869 3.17589 -0.682449 4.22162
ITEM: TIMESTEP
3000
ITEM: NUMBER OF ATOMS
16
ITEM: BOX BOUNDS xy xz yz pp pp pp
0.0000000000000000e+00 6.5999999999999996e+00 0.0000000000000000e+00
0.0000000000000000e+00 6.5999999999999996e+00 0.0000000000000000e+00
0.0000000000000000e+00 6.5999999999999996e+00 0.0000000000000000e+00
ITEM: ATOMS id type x y z fx fy fz
1 1 6.58007 6.57891 0.106587 -2.12284 -0.609595 3.06052
2 1 0.00714665 0.131493 3.39521 -3.66418 -1.09164 -2.45398
3 1 6.51883 3.3375 6.57718 2.83594 -1.17487 -0.785207
4 1 0.0499202 3.35858 3.22107 -1.20466 -0.817517 3.43322
5 1 3.33593 0.0323968 6.53472 -0.866336 -1.016 -1.73596
6 1 3.23091 6.57906 3.29991 3.20942 -0.678962 0.902095
7 1 3.25433 3.2935 0.0545284 1.37624 -0.991552 -1.04368
8 1 3.33789 3.24385 3.26931 0.260386 2.28434 -0.611763
9 1 1.69082 1.54855 1.5824 -0.447318 1.173 -0.169592
10 1 1.73284 1.66626 4.88446 3.39619 3.26657 -0.738167
11 1 1.62776 5.01179 1.60439 -1.04604 -2.4145 -1.22919
12 1 1.5566 4.93201 5.0567 -1.80804 -0.84995 0.844941
13 1 5.14417 1.53495 1.65522 -2.22216 2.07003 0.163538
14 1 4.97768 1.74083 4.9388 0.668704 -2.42929 1.23126
15 1 4.92786 4.82034 1.66259 -2.3406 4.94108 -3.13378
16 1 4.82724 4.98998 4.95693 3.97531 -1.66114 2.26574
ITEM: TIMESTEP
4000
ITEM: NUMBER OF ATOMS
16
ITEM: BOX BOUNDS xy xz yz pp pp pp
0.0000000000000000e+00 6.5999999999999996e+00 0.0000000000000000e+00
0.0000000000000000e+00 6.5999999999999996e+00 0.0000000000000000e+00
0.0000000000000000e+00 6.5999999999999996e+00 0.0000000000000000e+00
ITEM: ATOMS id type x y z fx fy fz
1 1 6.59292 6.45674 6.60845 0.334852 0.423959 -4.03015
2 1 6.57958 6.63542 3.25331 0.371902 -1.3599 0.285183
3 1 6.65425 3.1431 0.085526 -0.622683 1.03201 2.73733
4 1 0.0572209 3.36987 3.34526 1.18379 -0.868845 1.13164
5 1 3.27323 6.61259 0.0751084 -0.0149858 0.793144 2.8788
6 1 3.26429 0.0564453 3.31439 1.28713 -0.550074 3.20327
7 1 3.32009 3.1916 0.0875296 -0.170183 -1.54187 -3.29343
8 1 3.33197 3.33381 3.32995 3.12892 0.406294 0.853887
9 1 1.55415 1.63662 1.55909 2.61949 3.04941 -1.99698
10 1 1.73098 1.59695 4.80104 -0.635883 1.82982 0.31713
11 1 1.52079 4.95295 1.82052 0.950495 0.630133 0.202125
12 1 1.68959 4.91202 4.99206 -0.879916 2.14797 -1.33181
13 1 4.89161 1.63442 1.44545 -2.88605 -3.76872 -1.78482
14 1 5.13975 1.8268 4.83562 0.178655 -0.434961 -3.27912
15 1 4.80882 4.84872 1.71994 -2.94831 1.17741 0.422716
16 1 4.99073 5.19197 4.92676 -1.89723 -2.96578 3.68423
ITEM: TIMESTEP
5000
ITEM: NUMBER OF ATOMS
16
ITEM: BOX BOUNDS xy xz yz pp pp pp
0.0000000000000000e+00 6.5999999999999996e+00 0.0000000000000000e+00
0.0000000000000000e+00 6.5999999999999996e+00 0.0000000000000000e+00
0.0000000000000000e+00 6.5999999999999996e+00 0.0000000000000000e+00
ITEM: ATOMS id type x y z fx fy fz
1 1 6.68208 6.65438 1.20871e-05 -3.13524 -3.80928 0.798174
2 1 6.43688 0.0784518 3.3382 0.928475 2.78787 -2.13606
3 1 0.155164 3.19531 6.64919 -0.951609 -1.27376 -2.84717
4 1 6.46501 3.24988 3.25749 -0.0408637 -2.33516 4.3965
5 1 3.3596 6.67971 0.0271805 0.871995 1.55893 1.78902
6 1 3.23624 6.49623 3.30185 3.77145 0.807772 -0.687756
7 1 3.38128 3.23572 6.62476 -2.91847 -2.19747 3.46753
8 1 3.23623 3.37914 3.34286 -1.2846 -2.60124 -1.30856
9 1 1.76347 1.46474 1.69081 2.53075 -1.6094 2.40416
10 1 1.67291 1.61986 5.05643 -1.93979 4.23356 -2.90151
11 1 1.58872 4.87088 1.56093 3.35011 0.460082 -1.82825
12 1 1.68885 4.91861 4.86355 -3.59951 3.47353 -1.29796
13 1 5.04596 1.73684 1.53927 3.01372 -3.4137 0.220296
14 1 4.96727 1.79045 4.92753 -1.56386 0.746307 0.806861
15 1 4.94834 5.02417 1.58014 -0.565958 3.42036 -1.75617
16 1 4.77201 5.00564 5.03979 1.5334 -0.24841 0.880901
ITEM: TIMESTEP
6000
ITEM: NUMBER OF ATOMS
16
ITEM: BOX BOUNDS xy xz yz pp pp pp
0.0000000000000000e+00 6.5999999999999996e+00 0.0000000000000000e+00
0.0000000000000000e+00 6.5999999999999996e+00 0.0000000000000000e+00
0.0000000000000000e+00 6.5999999999999996e+00 0.0000000000000000e+00
ITEM: ATOMS id type x y z fx fy fz
1 1 6.53244 0.106118 0.12977 2.42769 -2.35134 -2.83882
2 1 6.57803 6.50612 3.18434 -1.14323 0.880068 -3.16534
3 1 6.55872 3.23983 0.0331244 1.47165 -2.09246 1.2626
4 1 0.128024 3.42186 3.30916 -2.78865 -4.52451 -1.97216
5 1 3.29881 6.59041 6.53439 0.880179 0.82157 -1.12653
6 1 3.20182 6.55551 3.22634 2.92275 -1.09565 -0.181588
7 1 3.32217 3.19657 6.46285 2.63625 0.136364 4.39024
8 1 3.36057 3.25279 3.36998 -0.406318 4.11648 -1.91519
9 1 1.73118 1.63596 1.65864 1.45658 0.538429 3.9429
10 1 1.59427 1.6561 4.94998 -4.36948 2.33927 2.77552
11 1 1.6881 4.97852 1.75474 -1.23704 0.166005 -1.88923
12 1 1.55644 4.93795 5.02496 -0.762142 -1.2011 -2.59195
13 1 4.86178 1.79788 1.66652 1.14576 -3.72745 0.763395
14 1 4.98825 1.51536 4.80615 -1.78975 3.72087 -0.154391
15 1 4.94543 5.02889 1.69052 -2.69379 3.10108 1.9312
16 1 5.05396 4.98014 4.99851 2.24953 -0.827637 0.769347
ITEM: TIMESTEP
7000
ITEM: NUMBER OF ATOMS
16
ITEM: BOX BOUNDS xy xz yz pp pp pp
0.0000000000000000e+00 6.5999999999999996e+00 0.0000000000000000e+00
0.0000000000000000e+00 6.5999999999999996e+00 0.0000000000000000e+00
0.0000000000000000e+00 6.5999999999999996e+00 0.0000000000000000e+00
ITEM: ATOMS id type x y z fx fy fz
1 1 0.0169598 -0.0240261 6.60532 0.949898 -2.69269 1.9091
2 1 0.170223 6.64763 3.24453 1.67771 -3.2628 -0.276961
3 1 6.59005 3.33098 6.48262 -1.4877 0.405605 0.176428
4 1 0.055869 3.17367 3.24696 -0.113397 -0.320672 0.625727
5 1 3.26328 6.47528 6.49925 -1.43657 4.00859 0.47576
6 1 3.37865 0.0653496 3.21969 1.74588 0.102821 0.833861
7 1 3.2796 3.3327 0.0779363 -3.70807 1.3251 -2.17573
8 1 3.24009 3.34199 3.38415 3.13295 3.56341 -4.21941
9 1 1.55433 1.67783 1.76509 1.86231 2.8209 1.95003
10 1 1.75417 1.4857 5.04586 0.96606 3.58441 3.00891
11 1 1.53554 4.92802 1.56391 -0.0867569 0.86056 0.84018
12 1 1.60515 4.8321 5.02188 2.95772 -0.805115 -3.41244
13 1 4.92339 1.73306 1.65224 -4.67489 0.350634 -1.10062
14 1 4.99444 1.73925 4.92987 3.06753 -3.21559 2.00752
15 1 4.93247 5.08823 1.68104 -4.83288 -4.73606 -3.72212
16 1 4.9058 4.97223 4.97966 -0.019794 -1.9891 3.07977
ITEM: TIMESTEP
8000
ITEM: NUMBER OF ATOMS
16
ITEM: BOX BOUNDS xy xz yz pp pp pp
0.0000000000000000e+00 6.5999999999999996e+00 0.0000000000000000e+00
0.0000000000000000e+00 6.5999999999999996e+00 0.0000000000000000e+00
0.0000000000000000e+00 6.5999999999999996e+00 0.0000000000000000e+00
ITEM: ATOMS id type x y z fx fy fz
1 1 6.57585 0.076438 6.39527 -0.0491501 0.569544 1.88391
2 1 0.0384442 0.0415576 3.22194 1.35083 0.295427 -2.94905
3 1 0.155867 3.30311 0.0612509 0.668551 2.2768 -3.9428
4 1 6.60141 3.22299 3.27939 -0.409321 -2.18943 2.83173
5 1 3.27971 -0.0235007 0.052543 2.48696 1.95068 1.76103
6 1 3.23362 6.53461 3.40609 -0.499613 -1.56245 -1.19745
7 1 3.35229 3.3157 0.00850951 -2.01315 -2.5006 0.400789
8 1 3.20699 3.36195 3.17961 2.30933 0.0584614 2.35504
9 1 1.73869 1.68142 1.77123 -2.27471 3.72539 -0.588047
10 1 1.76974 1.72025 5.11584 -2.50333 2.26098 -0.689369
11 1 1.45764 5.08307 1.73057 -1.28787 -0.456056 -0.588289
12 1 1.72161 4.98659 4.94567 2.43604 -1.42205 2.45321
13 1 4.89879 1.71996 1.77284 2.73936 -1.98235 -4.68277
14 1 4.95659 1.53842 5.02251 -1.31571 0.254994 3.55566
15 1 4.74468 4.93034 1.46911 -1.76861 -0.616899 2.70031
16 1 5.06807 4.70711 4.76764 0.130402 -0.662445 -3.30389
ITEM: TIMESTEP
9000
ITEM: NUMBER OF ATOMS
16
ITEM: BOX BOUNDS xy xz yz pp pp pp
0.0000000000000000e+00 6.5999999999999996e+00 0.0000000000000000e+00
0.0000000000000000e+00 6.5999999999999996e+00 0.0000000000000000e+00
0.0000000000000000e+00 6.5999999999999996e+00 0.0000000000000000e+00
ITEM: ATOMS id type x y z fx fy fz
1 1 0.0764954 6.44688 6.54088 1.12941 2.83856 -0.935685
2 1 6.382 6.46982 3.31233 2.98219 -2.32042 1.89963
3 1 6.62133 3.09445 0.10125 0.778983 0.335178 -1.77694
4 1 6.54432 3.21264 3.33416 2.5771 -0.958314 -4.364
5 1 3.38191 6.5823 0.0746395 -3.42176 -2.61286 2.50106
6 1 3.30156 -0.0303778 3.36402 1.72683 -0.607382 0.646033
7 1 3.31362 3.27698 -0.0346456 -0.187998 -0.434541 -0.0189523
8 1 3.28034 3.49833 3.32593 0.127071 2.72118 0.655991
9 1 1.75057 1.68387 1.68754 -1.46906 1.5607 1.90593
10 1 1.70717 1.69547 4.861 -4.04661 -1.47807 -0.163688
11 1 1.61565 5.19161 1.62923 3.42757 2.08463 0.633556
12 1 1.62041 4.91457 4.90711 -1.04816 -0.873074 0.633922
13 1 5.04119 1.74139 1.56416 -2.40333 -0.80126 1.45638
14 1 4.93158 1.56166 4.93764 0.713016 -1.46724 -3.21195
15 1 4.96649 5.04318 1.58294 -0.220912 2.05349 1.16893
16 1 4.86536 5.01724 5.01183 -0.664346 -0.0405716 -1.03023
ITEM: TIMESTEP
10000
ITEM: NUMBER OF ATOMS
16
ITEM: BOX BOUNDS xy xz yz pp pp pp
0.0000000000000000e+00 6.5999999999999996e+00 0.0000000000000000e+00
0.0000000000000000e+00 6.5999999999999996e+00 0.0000000000000000e+00
0.0000000000000000e+00 6.5999999999999996e+00 0.0000000000000000e+00
ITEM: ATOMS id type x y z fx fy fz
1 1 6.54782 0.0653228 6.51652 1.16836 -0.106147 2.87287
2 1 0.0369152 0.0607343 3.24962 -0.198254 -2.49807 -3.18942
3 1 0.072197 3.38517 6.61147 -1.43616 1.77974 0.56417
4 1 6.53753 3.35737 3.24242 1.62311 -2.76175 0.683924
5 1 3.3145 6.49964 0.0238143 1.42979 3.56936 -1.51269
6 1 3.25931 6.62008 3.33679 -0.728593 2.77572 0.775722
7 1 3.35688 3.19316 0.0139662 2.8857 2.32727 1.49517
8 1 3.26097 3.34126 3.37083 -0.0452592 1.60101 -2.99516
9 1 1.62002 1.68316 1.74824 -2.58391 1.17555 -2.2102
10 1 1.71523 1.57367 4.97287 1.6877 -1.08029 2.97183
11 1 1.62014 4.83753 1.61053 0.180495 -0.164497 -1.58305
12 1 1.58516 4.92772 4.89217 0.155539 -1.61943 -0.182737
13 1 5.08585 1.66793 1.65756 -2.45306 0.607184 -1.32627
14 1 5.02088 1.65594 4.87447 -0.98955 1.42783 0.652399
15 1 4.82217 4.99748 1.58539 2.638 -3.85333 3.59498
16 1 4.94444 4.93383 5.09334 -3.33392 -3.18014 -0.611545
ITEM: TIMESTEP
11000
ITEM: NUMBER OF ATOMS
16
ITEM: BOX BOUNDS xy xz yz pp pp pp
0.0000000000000000e+00 6.5999999999999996e+00 0.0000000000000000e+00
0.0000000000000000e+00 6.5999999999999996e+00 0.0000000000000000e+00
0.0000000000000000e+00 6.5999999999999996e+00 0.0000000000000000e+00
ITEM: ATOMS id type x y z fx fy fz
1 1 6.66892 6.61862 6.46449 -3.33215 2.67427 -1.74013
2 1 -0.00277756 0.000671912 3.20194 3.59201 3.56689 -0.278081
3 1 6.43865 3.28959 0.000963849 -1.61879 -2.29392 -1.25493
4 1 6.59303 3.35586 3.25805 -1.11902 -3.06725 3.47548
5 1 3.16318 6.65376 6.68467 0.460639 2.37722 0.0316769
6 1 3.33686 0.042602 3.32557 -2.58998 0.458297 -3.62756
7 1 3.42035 3.25098 0.0736187 -1.47045 -2.93607 -0.27712
8 1 3.29604 3.32611 3.23341 0.202624 3.53423 3.3269
9 1 1.54831 1.56416 1.62837 -0.655951 -2.23325 -3.65286
10 1 1.50763 1.79295 4.95273 4.16396 1.20285 1.76894
11 1 1.69008 4.92618 1.82735 -2.19982 -0.704419 -2.37173
12 1 1.83542 4.95349 5.03528 2.19197 1.99452 -2.3757
13 1 5.03676 1.54684 1.58457 -2.35864 -2.30317 4.09845
14 1 4.86686 1.68881 4.9323 1.81522 -1.21021 1.12284
15 1 4.87578 4.91827 1.66516 1.73915 1.2116 3.22923
16 1 5.12489 4.8711 4.93153 1.17924 -2.27158 -1.47539
ITEM: TIMESTEP
12000
ITEM: NUMBER OF ATOMS
16
ITEM: BOX BOUNDS xy xz yz pp pp pp
0.0000000000000000e+00 6.5999999999999996e+00 0.0000000000000000e+00
0.0000000000000000e+00 6.5999999999999996e+00 0.0000000000000000e+00
0.0000000000000000e+00 6.5999999999999996e+00 0.0000000000000000e+00
ITEM: ATOMS id type x y z fx fy fz
1 1 6.5622 0.136665 -0.0254354 -3.22791 -0.765434 -2.32549
2 1 -0.064624 -0.002408 3.3239 -3.13477 2.48868 1.21008
3 1 0.0113564 3.37628 6.40505 -0.748504 -3.42865 1.40383
4 1 6.64325 3.28695 3.17487 -0.333591 4.23329 -1.78435
5 1 3.39264 6.47898 6.70998 1.10094 -1.54431 -1.49048
6 1 3.24596 0.05654 3.40636 2.93465 0.181111 0.788139
7 1 3.32864 3.22954 6.63522 -3.28367 2.2786 -0.787023
8 1 3.27458 3.33892 3.3098 1.54431 0.523747 -2.8313
9 1 1.53058 1.70284 1.5958 -0.502369 2.49421 3.52664
10 1 1.71577 1.71505 5.06951 1.30279 -2.32721 1.89549
11 1 1.73004 5.06849 1.65195 0.308544 0.970215 2.20381
12 1 1.64407 4.97449 5.03522 -2.14765 -2.71642 -1.55137
13 1 4.81732 1.47275 1.7351 3.09034 -0.707118 1.26622
14 1 4.99639 1.62396 5.03191 -1.9047 -2.22078 -1.51033
15 1 4.94681 4.80223 1.57214 2.16409 -2.4847 2.425
16 1 5.02502 4.93873 4.76864 2.83749 3.02478 -2.43887
ITEM: TIMESTEP
13000
ITEM: NUMBER OF ATOMS
16
ITEM: BOX BOUNDS xy xz yz pp pp pp
0.0000000000000000e+00 6.5999999999999996e+00 0.0000000000000000e+00
0.0000000000000000e+00 6.5999999999999996e+00 0.0000000000000000e+00
0.0000000000000000e+00 6.5999999999999996e+00 0.0000000000000000e+00
ITEM: ATOMS id type x y z fx fy fz
1 1 0.100185 0.0785765 0.00618714 -0.0609799 -1.07517 3.12397
2 1 0.0546801 6.54963 3.33546 -1.9877 0.802066 1.29777
3 1 6.57017 3.32996 6.56297 0.313825 1.76526 2.08476
4 1 0.109332 3.23389 3.08395 -3.36635 -1.4021 1.45935
5 1 3.28121 6.55415 0.0991839 -2.5571 -0.924931 -0.61688
6 1 3.29895 6.57615 3.37224 -1.34792 0.364485 -1.48508
7 1 3.36882 3.29891 6.53159 -1.17562 -0.4151 2.61519
8 1 3.30381 3.43868 3.17567 -0.621735 0.197787 -2.28846
9 1 1.58724 1.66052 1.76475 4.45731 0.397017 -1.68838
10 1 1.69665 1.79934 5.08653 -3.07054 -3.09692 -1.69417
11 1 1.53085 4.90885 1.7257 4.00981 3.79744 -2.35574
12 1 1.54924 4.85338 4.94411 -1.02539 3.26225 -0.788489
13 1 4.94885 1.52095 1.69481 -3.27019 1.82913 -1.77407
14 1 4.96522 1.69337 4.84094 2.01877 -1.19686 3.59743
15 1 5.00077 4.9644 1.52141 3.42485 -1.42664 0.173181
16 1 4.83401 4.93923 5.0545 4.25897 -2.87772 -1.66038
ITEM: TIMESTEP
14000
ITEM: NUMBER OF ATOMS
16
ITEM: BOX BOUNDS xy xz yz pp pp pp
0.0000000000000000e+00 6.5999999999999996e+00 0.0000000000000000e+00
0.0000000000000000e+00 6.5999999999999996e+00 0.0000000000000000e+00
0.0000000000000000e+00 6.5999999999999996e+00 0.0000000000000000e+00
ITEM: ATOMS id type x y z fx fy fz
1 1 0.0167761 0.10578 -0.042885 3.56788 1.63932 3.7972
2 1 6.48584 0.084372 3.34746 -1.61964 -1.7652 -1.79831
3 1 0.0311093 3.39268 0.073345 -0.926936 -0.0820269 -2.35128
4 1 0.0656602 3.30623 3.44427 1.16558 -0.419182 0.866944
5 1 3.36597 6.5734 6.47746 3.45701 1.82131 2.62158
6 1 3.23279 0.0462603 3.33383 -0.35412 -1.29306 -3.15896
7 1 3.23983 3.27381 6.47812 0.2454 -2.64018 2.28116
8 1 3.32953 3.26883 3.1914 3.27011 -3.90075 -2.01161
9 1 1.65814 1.51482 1.67553 -1.01321 -0.637231 -1.40555
10 1 1.48401 1.57883 5.05778 -1.92332 -2.72743 0.289237
11 1 1.7232 4.92497 1.551 0.349269 -0.875471 4.01652
12 1 1.6147 4.81759 4.89557 -1.22715 3.83388 -1.12846
13 1 5.01608 1.69661 1.67035 -3.1393 0.616538 2.96114
14 1 4.93121 1.73452 4.97029 3.15544 1.96378 0.233627
15 1 4.97893 4.85799 1.7766 -2.93833 1.35716 -2.85589
16 1 5.02624 5.02332 4.89986 -2.06868 3.10853 -2.35734
ITEM: TIMESTEP
15000
ITEM: NUMBER OF ATOMS
16
ITEM: BOX BOUNDS xy xz yz pp pp pp
0.0000000000000000e+00 6.5999999999999996e+00 0.0000000000000000e+00
0.0000000000000000e+00 6.5999999999999996e+00 0.0000000000000000e+00
0.0000000000000000e+00 6.5999999999999996e+00 0.0000000000000000e+00
ITEM: ATOMS id type x y z fx fy fz
1 1 0.00122386 -0.00442309 -0.0129268 1.15572 -1.79529 2.37107
2 1 -0.0433826 6.63636 3.39042 1.8318 0.451811 -2.40411
3 1 -0.027549 3.25665 0.0340519 1.47406 -1.91416 3.48368
4 1 6.58709 3.25152 3.34566 -1.51791 -0.525275 1.40217
5 1 3.35724 6.51456 0.026964 -2.54116 1.51292 1.71491
6 1 3.28467 0.112095 3.21911 -2.51745 -1.87697 3.2932
7 1 3.39137 3.24916 0.0858653 0.168662 2.57153 -2.9896
8 1 3.22235 3.39473 3.22081 -0.402507 1.41714 -2.38735
9 1 1.64454 1.66539 1.73276 0.192404 0.495666 -1.64922
10 1 1.64299 1.74444 4.97746 2.45242 -0.398493 3.25705
11 1 1.71847 4.96489 1.59717 -2.47842 2.7676 3.42828
12 1 1.61697 5.09153 4.99903 1.90839 -0.687839 -1.92634
13 1 4.93774 1.55473 1.63429 0.0573488 -2.97022 -3.35088
14 1 4.76029 1.59606 5.0804 1.83965 -1.68791 2.52042
15 1 5.15218 4.89711 1.50739 -1.67374 2.63294 -3.68693
16 1 4.9538 4.87521 4.76155 0.050736 0.00655458 -3.07634
ITEM: TIMESTEP
16000
ITEM: NUMBER OF ATOMS
16
ITEM: BOX BOUNDS xy xz yz pp pp pp
0.0000000000000000e+00 6.5999999999999996e+00 0.0000000000000000e+00
0.0000000000000000e+00 6.5999999999999996e+00 0.0000000000000000e+00
0.0000000000000000e+00 6.5999999999999996e+00 0.0000000000000000e+00
ITEM: ATOMS id type x y z fx fy fz
1 1 6.47389 0.0650155 6.5949 -2.10776 1.57639 -2.2411
2 1 6.49203 0.0551981 3.20276 3.70891 -1.21025 1.44777
3 1 0.137753 3.23654 6.54728 -2.64375 1.93822 -2.55417
4 1 0.0113345 3.28921 3.24092 4.09928 -0.397591 -0.715503
5 1 3.33511 0.000484047 -0.000165906 2.23676 2.42677 -0.000436832
6 1 3.21243 0.087493 3.29305 -3.08932 1.09486 3.55706
7 1 3.36102 3.25082 0.0212781 1.03651 -3.2797 -1.21694
8 1 3.41083 3.28028 3.34505 -1.82881 -3.91531 -2.44098
9 1 1.59126 1.59838 1.49329 -1.54788 -2.89719 3.9909
10 1 1.4541 1.64827 4.96911 -0.528247 -1.95754 0.840936
11 1 1.79595 4.87527 1.69854 0.989796 2.97198 0.389966
12 1 1.6616 4.93393 4.98032 2.64815 1.89605 2.06215
13 1 4.93115 1.61794 1.76649 2.18489 -2.36149 -0.751167
14 1 4.99218 1.68531 5.06012 -1.92938 2.83832 -1.45974
15 1 5.03263 4.99983 1.65454 -2.12958 -1.58978 1.65249
16 1 4.90673 4.97603 4.93254 -1.09955 2.86626 -2.56124
ITEM: TIMESTEP
17000
ITEM: NUMBER OF ATOMS
16
ITEM: BOX BOUNDS xy xz yz pp pp pp
0.0000000000000000e+00 6.5999999999999996e+00 0.0000000000000000e+00
0.0000000000000000e+00 6.5999999999999996e+00 0.0000000000000000e+00
0.0000000000000000e+00 6.5999999999999996e+00 0.0000000000000000e+00
ITEM: ATOMS id type x y z fx fy fz
1 1 0.143226 6.49532 0.0348358 -4.02433 -2.33545 -2.04819
2 1 6.59081 6.54721 3.39616 1.43646 -3.11698 -2.62273
3 1 0.107109 3.40801 6.38966 -1.16898 -0.075527 4.4924
4 1 6.56698 3.27503 3.21412 -0.665408 0.252782 2.1857
5 1 3.18178 0.0665065 6.54547 4.09896 0.0312768 2.95605
6 1 3.34393 6.69015 3.38383 -2.7211 -2.96675 -3.82264
7 1 3.40313 3.33137 6.66439 1.29544 -2.95595 2.42933
8 1 3.26702 3.36752 3.24891 2.00209 4.02619 3.4519
9 1 1.65441 1.41131 1.71165 -3.39127 2.86599 3.96466
10 1 1.48535 1.57249 4.9767 4.57621 4.27533 -3.07526
11 1 1.65647 4.79001 1.63286 -2.81634 -2.15832 -2.80259
12 1 1.60161 5.04097 4.89458 0.109588 1.08706 -3.17673
13 1 4.92317 1.64687 1.61642 1.45168 -0.509675 0.623103
14 1 4.95225 1.73005 4.93464 0.917083 0.51716 -3.50465
15 1 5.01939 5.0057 1.77861 -1.72087 -1.29965 2.25325
16 1 4.90338 5.02147 4.97715 0.620764 2.3625 -1.30361
ITEM: TIMESTEP
18000
ITEM: NUMBER OF ATOMS
16
ITEM: BOX BOUNDS xy xz yz pp pp pp
0.0000000000000000e+00 6.5999999999999996e+00 0.0000000000000000e+00
0.0000000000000000e+00 6.5999999999999996e+00 0.0000000000000000e+00
0.0000000000000000e+00 6.5999999999999996e+00 0.0000000000000000e+00
ITEM: ATOMS id type x y z fx fy fz
1 1 -0.0498296 0.129421 6.51658 4.32494 -4.71719 1.51861
2 1 -0.0525711 0.0769267 3.30281 3.17817 -1.23592 3.32717
3 1 6.59977 3.3021 0.115912 2.89043 -0.806528 -2.15603
4 1 0.0128052 3.36274 3.33438 0.909639 2.23209 3.14951
5 1 3.39159 6.55729 6.59189 -2.26509 -0.37184 -0.613612
6 1 3.0349 6.41713 3.30222 -0.47714 -2.54889 -0.672464
7 1 3.38773 3.24451 6.44904 0.660958 -0.279832 -0.302512
8 1 3.2899 3.15412 3.21628 -0.182387 -1.07773 1.95603
9 1 1.6923 1.63329 1.63578 -1.14916 1.26794 -1.50671
10 1 1.65883 1.79352 4.98453 -1.47955 1.39073 0.0765555
11 1 1.62803 4.93365 1.53973 -1.07969 1.029 -1.55059
12 1 1.74822 4.98716 4.98103 0.123319 0.848136 -0.78052
13 1 5.11523 1.60149 1.76647 -3.48296 2.30169 -2.22318
14 1 4.9055 1.73578 4.93401 -1.54531 2.16793 3.08884
15 1 4.94381 4.89762 1.75848 1.91266 -3.69493 -0.96429
16 1 4.8938 4.97325 4.97088 -2.33882 3.49532 -2.34681
ITEM: TIMESTEP
19000
ITEM: NUMBER OF ATOMS
16
ITEM: BOX BOUNDS xy xz yz pp pp pp
0.0000000000000000e+00 6.5999999999999996e+00 0.0000000000000000e+00
0.0000000000000000e+00 6.5999999999999996e+00 0.0000000000000000e+00
0.0000000000000000e+00 6.5999999999999996e+00 0.0000000000000000e+00
ITEM: ATOMS id type x y z fx fy fz
1 1 6.49674 0.150389 0.0309856 -0.0746084 1.13005 0.604665
2 1 6.661 -0.00734612 3.38085 0.558101 -0.0842269 -3.73553
3 1 -6.75229e-05 3.33909 6.54603 0.429831 -0.714903 -0.171259
4 1 -0.0409904 3.28016 3.3259 -2.79236 -1.03372 1.07113
5 1 3.21342 -0.0530265 6.56815 -2.76719 -0.249253 2.32184
6 1 3.31485 6.59755 3.21598 1.87347 -2.08248 3.63221
7 1 3.41632 3.27116 0.0246428 1.75274 1.54793 -3.21758
8 1 3.26894 3.19456 3.3278 -0.367989 0.331031 0.413756
9 1 1.73552 1.68096 1.5718 0.240106 1.25088 -0.546627
10 1 1.60612 1.62816 4.83153 0.138892 -1.50893 -0.809614
11 1 1.64796 4.95013 1.74711 1.7428 1.12193 0.196884
12 1 1.63202 4.82415 4.98045 -3.61281 1.22543 1.4587
13 1 5.03052 1.5475 1.68082 2.55273 2.10033 1.39563
14 1 4.87594 1.69047 5.01261 -3.19447 -4.35557 -3.3762
15 1 5.00753 4.93416 1.68992 1.12879 1.37651 0.0131764
16 1 4.93419 5.17195 4.86543 2.39197 -0.0550235 0.748828
ITEM: TIMESTEP
20000
ITEM: NUMBER OF ATOMS
16
ITEM: BOX BOUNDS xy xz yz pp pp pp
0.0000000000000000e+00 6.5999999999999996e+00 0.0000000000000000e+00
0.0000000000000000e+00 6.5999999999999996e+00 0.0000000000000000e+00
0.0000000000000000e+00 6.5999999999999996e+00 0.0000000000000000e+00
ITEM: ATOMS id type x y z fx fy fz
1 1 0.120939 6.56025 0.204075 -1.71672 -0.786284 -2.62847
2 1 6.49752 0.0837535 3.33275 1.83856 -1.41699 0.743061
3 1 0.0973892 3.34202 0.00806455 3.94879 -2.62839 -2.62128
4 1 6.47956 3.27282 3.34403 -1.8506 -3.38054 -3.28786
5 1 3.25193 0.0661934 0.13165 1.69864 1.98563 -0.84291
6 1 3.14289 6.58314 3.45058 1.11467 2.08267 -0.90821
7 1 3.44178 3.19379 6.41363 -2.65312 2.29304 0.177959
8 1 3.30127 3.30523 3.1817 2.44346 2.50168 -1.15922
9 1 1.67387 1.84429 1.66556 -1.3924 2.46781 4.23438
10 1 1.6326 1.59657 5.02382 1.25547 -2.22693 3.0225
11 1 1.6606 5.05364 1.53543 -1.12887 -0.556912 1.20812
12 1 1.65241 4.82423 4.73177 -1.13618 0.456953 2.44245
13 1 4.97273 1.62131 1.64025 -0.978217 -0.555927 0.00302343
14 1 4.94288 1.56363 5.02596 -0.318179 0.364198 -1.07476
15 1 4.81538 4.8771 1.68404 0.356554 0.227704 3.11988
16 1 5.11625 5.01203 4.82668 -1.48185 -0.827714 -2.42866
ITEM: TIMESTEP
21000
ITEM: NUMBER OF ATOMS
16
ITEM: BOX BOUNDS xy xz yz pp pp pp
0.0000000000000000e+00 6.5999999999999996e+00 0.0000000000000000e+00
0.0000000000000000e+00 6.5999999999999996e+00 0.0000000000000000e+00
0.0000000000000000e+00 6.5999999999999996e+00 0.0000000000000000e+00
ITEM: ATOMS id type x y z fx fy fz
1 1 -0.0142792 0.0503889 0.0666712 0.691473 -0.387874 -2.80996
2 1 6.57638 -0.0601171 3.29104 0.92754 1.47423 -2.25942
3 1 -0.0119331 3.21984 -0.0131171 -2.5717 -1.93837 3.07925
4 1 6.57444 3.31756 3.27571 1.38189 0.32125 -2.34967
5 1 3.41527 0.0916875 6.55473 -1.98017 2.45581 -0.60531
6 1 3.16473 -0.0441596 3.24407 -0.788106 4.31754 2.98345
7 1 3.35136 3.40327 6.63435 3.85755 -1.7059 -1.1553
8 1 3.39387 3.28931 3.27623 1.37533 -1.07262 -1.92327
9 1 1.62523 1.63077 1.6415 -2.53835 2.00559 3.01338
10 1 1.63503 1.65502 4.89694 -1.48399 -0.419902 -0.302112
11 1 1.65337 4.80347 1.81741 -0.995072 2.01543 -0.596129
12 1 1.65264 5.00761 4.95186 -2.47688 -1.24417 -0.066972
13 1 4.83358 1.64973 1.64633 4.2413 -0.406662 -0.96545
14 1 5.05436 1.63317 4.87926 3.09238 -1.7054 -0.205737
15 1 5.02604 4.88886 1.65726 -2.31321 -1.5233 1.05422
16 1 4.86991 5.06358 4.97974 -0.419973 -2.18566 3.10903
ITEM: TIMESTEP
22000
ITEM: NUMBER OF ATOMS
16
ITEM: BOX BOUNDS xy xz yz pp pp pp
0.0000000000000000e+00 6.5999999999999996e+00 0.0000000000000000e+00
0.0000000000000000e+00 6.5999999999999996e+00 0.0000000000000000e+00
0.0000000000000000e+00 6.5999999999999996e+00 0.0000000000000000e+00
ITEM: ATOMS id type x y z fx fy fz
1 1 6.57945 6.39462 6.60547 2.6539 1.54102 -0.669212
2 1 6.55068 0.174574 3.30056 2.26534 -3.21322 0.660223
3 1 6.54187 3.09905 0.0333634 3.39085 -2.81101 1.75092
4 1 0.111008 3.34059 3.34512 -0.319992 0.414319 -1.22682
5 1 3.19391 0.0862916 6.53103 3.59096 -2.87961 0.181458
6 1 3.17338 0.130931 3.26365 0.138798 1.66648 1.5845
7 1 3.36197 3.36995 0.0436991 -3.00613 3.57508 2.25569
8 1 3.41194 3.39403 3.31106 -1.25788 2.61828 0.406219
9 1 1.8216 1.63389 1.58939 -0.426932 -1.11704 1.89374
10 1 1.64896 1.46621 4.87467 -0.0949779 2.76949 -2.1559
11 1 1.67719 4.98192 1.64513 -0.730577 -3.72708 -0.857453
12 1 1.52931 4.73333 4.90725 -3.18569 2.40875 -3.22141
13 1 4.94782 1.69497 1.67641 -1.3309 -0.484181 3.7349
14 1 4.93622 1.73588 5.00888 -1.43131 -2.09873 -3.53664
15 1 5.01445 4.96617 1.68678 0.725605 -0.638411 1.25492
16 1 4.90026 4.9976 4.97753 -0.981055 1.97586 -2.05514
ITEM: TIMESTEP
23000
ITEM: NUMBER OF ATOMS
16
ITEM: BOX BOUNDS xy xz yz pp pp pp
0.0000000000000000e+00 6.5999999999999996e+00 0.0000000000000000e+00
0.0000000000000000e+00 6.5999999999999996e+00 0.0000000000000000e+00
0.0000000000000000e+00 6.5999999999999996e+00 0.0000000000000000e+00
ITEM: ATOMS id type x y z fx fy fz
1 1 0.199292 6.55712 0.0591979 2.82898 1.24401 -2.68018
2 1 6.55584 0.0438208 3.35998 0.346994 -0.711102 -2.24699
3 1 0.0472594 3.34561 6.58175 1.94377 0.389524 3.13412
4 1 6.44455 3.22334 3.35345 0.251004 0.889447 1.48899
5 1 3.44962 0.0353409 6.52679 0.07969 -0.769962 1.48662
6 1 3.23476 0.0712503 3.22254 1.93578 3.00747 -3.80491
7 1 3.33104 3.27697 6.48732 -0.542162 2.30736 0.805372
8 1 3.26597 3.50365 3.33729 1.91013 -2.63406 0.630832
9 1 1.58053 1.58795 1.6037 -2.16996 1.15561 2.55799
10 1 1.69426 1.68219 4.94961 -2.28445 2.6726 2.15642
11 1 1.56622 4.95427 1.67114 -2.93365 -3.31212 0.813559
12 1 1.6885 4.99098 5.01777 2.60758 -1.55262 -0.781084
13 1 4.83211 1.5581 1.72885 1.32481 -3.70737 0.79349
14 1 5.03403 1.64152 4.95112 -2.40105 3.12529 -3.42831
15 1 4.89437 4.80725 1.60614 -1.84393 0.150009 -0.203498
16 1 4.98164 4.92062 4.94335 -1.05353 -2.25408 -0.722433
ITEM: TIMESTEP
24000
ITEM: NUMBER OF ATOMS
16
ITEM: BOX BOUNDS xy xz yz pp pp pp
0.0000000000000000e+00 6.5999999999999996e+00 0.0000000000000000e+00
0.0000000000000000e+00 6.5999999999999996e+00 0.0000000000000000e+00
0.0000000000000000e+00 6.5999999999999996e+00 0.0000000000000000e+00
ITEM: ATOMS id type x y z fx fy fz
1 1 6.50048 6.59665 0.227616 3.47442 -1.84069 1.43119
2 1 0.0253017 6.46597 3.20611 3.51045 2.44567 2.13164
3 1 0.00321376 3.31261 0.0373208 -2.42967 -3.06683 -0.448732
4 1 0.154925 3.16866 3.39247 -0.357562 3.06068 0.315394
5 1 3.27031 0.0842119 6.5448 3.26275 1.25332 2.8721
6 1 3.32524 0.041585 3.17256 2.67571 0.0083132 -1.9106
7 1 3.06051 3.40885 0.00521073 -1.82178 -1.11871 -0.17437
8 1 3.48555 3.23143 3.31047 2.24161 3.18449 -2.99488
9 1 1.75024 1.54474 1.45114 -1.67884 -3.7388 -2.35594
10 1 1.68083 1.64049 4.90018 3.09479 2.88947 -1.92447
11 1 1.78013 4.92766 1.73128 -4.40204 -4.31434 -2.58858
12 1 1.49073 5.00577 5.03212 -0.637485 2.99141 -1.62408
13 1 4.98099 1.77883 1.69084 -1.54875 0.334345 1.91589
14 1 5.0869 1.72351 4.92204 -4.19331 -1.47956 3.75937
15 1 4.81231 4.92349 1.6115 -0.746242 -3.33079 -1.31131
16 1 4.79235 4.94554 4.96436 -0.444054 2.722 2.90739
ITEM: TIMESTEP
25000
ITEM: NUMBER OF ATOMS
16