
0.000000000 6.600000000 xlo xhi
0.000000000 6.600000000 ylo yhi
0.000000000 6.600000000 zlo zhi
0.000000000 0.000000000 0.000000000 xy xz yz

16 atoms

1 atom types

Atoms

     1     1          0.00000000          0.00000000          0.00000000
     2     1          0.00000000          0.00000000          3.30000000
     3     1          0.00000000          3.30000000          0.00000000
     4     1          0.00000000          3.30000000          3.30000000
     5     1          3.30000000          0.00000000          0.00000000
     6     1          3.30000000          0.00000000          3.30000000
     7     1          3.30000000          3.30000000          0.00000000
     8     1          3.30000000          3.30000000          3.30000000
     9     1          1.65000000          1.65000000          1.65000000
    10     1          1.65000000          1.65000000          4.95000000
    11     1          1.65000000          4.95000000          1.65000000
    12     1          1.65000000          4.95000000          4.95000000
    13     1          4.95000000          1.65000000          1.65000000
    14     1          4.95000000          1.65000000          4.95000000
    15     1          4.95000000          4.95000000          1.65000000
    16     1          4.95000000          4.95000000          4.95000000
