BEGIN_CFG
 Size
    16
 Supercell
         6.600000      0.000000      0.000000
         0.000000      6.600000      0.000000
         0.000000      0.000000      6.600000
 AtomData:  id type       cartes_x      cartes_y      cartes_z           fx          fy          fz
             1    0       6.598190      6.599890      6.599920     0.007760    0.000197    0.001724
             2    0       6.599210      0.000966      3.300510     0.006272   -0.005003   -0.002128
             3    0       6.598880      3.300050      0.000111     0.006970    0.001335   -0.000603
             4    0       6.599920      3.299560      3.300060    -0.001366    0.005073    0.000522
             5    0       3.298870      6.599930      0.000430     0.000357   -0.004092   -0.004083
             6    0       3.300440      6.598850      3.299330    -0.003958    0.002523    0.004854
             7    0       3.300200      3.298590      6.599890    -0.003378    0.008240   -0.003108
             8    0       3.298990      3.298720      3.298740     0.005751    0.003808    0.006437
             9    0       1.650720      1.650850      1.650300    -0.003025   -0.003259    0.003387
            10    0       1.650330      1.650370      4.951870    -0.001763   -0.005984   -0.008532
            11    0       1.650630      4.950910      1.649350    -0.004447   -0.001830    0.001661
            12    0       1.651050      4.948770      4.949230    -0.000661    0.006706    0.001211
            13    0       4.950870      1.651020      1.649090    -0.002395   -0.005208    0.006954
            14    0       4.949980      1.650230      4.950570    -0.000478    0.001655   -0.006220
            15    0       4.950020      4.950070      1.649760     0.001505    0.001996    0.004542
            16    0       4.951700      4.951220      4.950850    -0.007144   -0.006156   -0.006617
 Energy
       -119.446710000000
 Feature   mindist	2.854553
END_CFG

