BEGIN_CFG
 Size
    16
 Supercell
         6.600000      0.000000      0.000000
         0.000000      6.600000      0.000000
         0.000000      0.000000      6.600000
 AtomData:  id type       cartes_x      cartes_y      cartes_z           fx          fy          fz
             1    0       6.598190      6.599890      6.599920     0.007760    0.000197    0.001724
             2    0       6.599210      0.000966      3.300510     0.006272   -0.005003   -0.002128
             3    0       6.598880      3.300050      0.000111     0.006970    0.001335   -0.000603
             4    0       6.599920      3.299560      3.300060    -0.001366    0.005073    0.000522
             5    0       3.298870      6.599930      0.000430     0.000357   -0.004092   -0.004083
             6    0       3.300440      6.598850      3.299330    -0.003958    0.002523    0.004854
             7    0       3.300200      3.298590      6.599890    -0.003378    0.008240   -0.003108
             8    0       3.298990      3.298720      3.298740     0.005751    0.003808    0.006437
             9    0       1.650720      1.650850      1.650300    -0.003025   -0.003259    0.003387
            10    0       1.650330      1.650370      4.951870    -0.001763   -0.005984   -0.008532
            11    0       1.650630      4.950910      1.649350    -0.004447   -0.001830    0.001661
            12    0       1.651050      4.948770      4.949230    -0.000661    0.006706    0.001211
            13    0       4.950870      1.651020      1.649090    -0.002395   -0.005208    0.006954
            14    0       4.949980      1.650230      4.950570    -0.000478    0.001655   -0.006220
            15    0       4.950020      4.950070      1.649760     0.001505    0.001996    0.004542
            16    0       4.951700      4.951220      4.950850    -0.007144   -0.006156   -0.006617
 Energy
       -119.446710000000
 Feature   mindist	2.854553
END_CFG

BEGIN_CFG
 Size
    16
 Supercell
    6.6    0    0
    0    6.6    0
    0    0    6.6
 AtomData:  id type    cartes_x    cartes_y    cartes_z    fx    fy    fz
    1    0    6.59743    6.59986    6.59998    0.0124987    -0.000949064    0.00251539
    2    0    6.59872    0.001632    3.3009    0.0094047    -0.00797412    -0.00401748
    3    0    6.59885    3.29983    0.000368    0.00868418    0.00369279    -0.00292315
    4    0    6.59943    3.29951    3.29989    0.000492392    0.00719798    0.00238165
    5    0    3.29903    0.000496    0.000851    -0.00226956    -0.00955191    -0.00604355
    6    0    3.30055    6.59803    3.29928    -0.00573378    0.00461778    0.00590351
    7    0    3.30048    3.2978    6.59976    -0.00509412    0.0147161    -0.00382877
    8    0    3.29851    3.2979    3.29846    0.00662688    0.00589009    0.00793168
    9    0    1.6513    1.65122    1.65054    -0.00557664    -0.00492675    0.00477717
    10    0    1.6504    1.65049    4.95268    -0.00350387    -0.00723019    -0.0121456
    11    0    1.65099    4.95129    1.64865    -0.00667492    -0.00240504    0.00393924
    12    0    1.65139    4.94876    4.94876    -0.00202632    0.00727248    0.00166854
    13    0    4.9513    1.65145    1.64841    -0.00273613    -0.00851809    0.0126397
    14    0    4.94962    1.65031    4.95117    0.00134203    0.00269909    -0.0113799
    15    0    4.95005    4.94962    1.64973    0.00235204    0.00478354    0.00430377
    16    0    4.95193    4.95179    4.95055    -0.0077856    -0.00931471    -0.00572221
 Energy
    -119.44660999999999
END_CFG

BEGIN_CFG
 Size
    16
 Supercell
    6.6    0    0
    0    6.6    0
    0    0    6.6
 AtomData:  id type    cartes_x    cartes_y    cartes_z    fx    fy    fz
    1    0    6.59574    6.59971    0.000148    0.0210571    -0.00222126    0.00288528
    2    0    6.59845    0.004118    3.30161    0.0143373    -0.0215921    -0.00633665
    3    0    6.59841    3.29963    0.001601    0.0118937    0.00645032    -0.011312
    4    0    6.59806    3.29879    3.29927    0.00699488    0.0172929    0.00921218
    5    0    3.29909    0.001056    0.001609    -0.00533481    -0.0166928    -0.0117941
    6    0    3.30096    6.59725    3.29877    -0.00967243    0.00406582    0.0108377
    7    0    3.30078    3.2969    6.59968    -0.00671749    0.0228492    -0.00724425
    8    0    3.29733    3.29638    3.29739    0.00737492    0.0120877    0.0135921
    9    0    1.65339    1.65164    1.65082    -0.0161989    -0.00630871    0.00564357
    10    0    1.65133    1.65019    4.95386    -0.0105115    -0.00673206    -0.0161279
    11    0    1.65229    4.95204    1.6464    -0.0152119    -0.00418782    0.0156335
    12    0    1.65186    4.94838    4.94881    -0.00818621    0.00796453    -0.00490735
    13    0    4.95177    1.65186    1.64798    0.000833086    -0.0109837    0.0180053
    14    0    4.94913    1.65027    4.95225    0.00586398    0.00494657    -0.0176754
    15    0    4.95015    4.94953    1.65063    0.00632656    0.00614529    -0.0014077
    16    0    4.95124    4.95226    4.94919    -0.00284832    -0.0130839    0.000995621
 Energy
    -119.44633000000002
END_CFG

BEGIN_CFG
 Size
    16
 Supercell
    6.6    0    0
    0    6.6    0
    0    0    6.6
 AtomData:  id type    cartes_x    cartes_y    cartes_z    fx    fy    fz
    1    0    0.0    0.0    0.0    -9.85323e-16    -9.85323e-16    -5.55112e-17
    2    0    0.0    0.0    3.3    -7.49401e-16    -7.49401e-16    -2.77556e-17
    3    0    0.0    3.3    0.0    -8.04912e-16    4.44089e-16    -4.16334e-16
    4    0    0.0    3.3    3.3    -7.35523e-16    -1.66533e-16    5.55112e-17
    5    0    3.3    0.0    0.0    4.44089e-16    -8.04912e-16    -4.16334e-16
    6    0    3.3    0.0    3.3    -1.66533e-16    -7.35523e-16    5.55112e-17
    7    0    3.3    3.3    0.0    1.38778e-16    1.38778e-16    -6.93889e-16
    8    0    3.3    3.3    3.3    1.11022e-16    1.11022e-16    -2.35922e-16
    9    0    1.65    1.65    1.65    -2.47025e-15    -2.47025e-15    -2.52576e-15
    10    0    1.65    1.65    4.95    -2.44249e-15    -2.44249e-15    3.46945e-15
    11    0    1.65    4.95    1.65    -2.55351e-15    3.38618e-15    -2.498e-15
    12    0    1.65    4.95    4.95    -2.52576e-15    2.80331e-15    2.83107e-15
    13    0    4.95    1.65    1.65    3.38618e-15    -2.53964e-15    -2.498e-15
    14    0    4.95    1.65    4.95    2.80331e-15    -2.52576e-15    2.83107e-15
    15    0    4.95    4.95    1.65    3.19189e-15    3.17801e-15    -3.44169e-15
    16    0    4.95    4.95    4.95    3.33067e-15    3.34455e-15    3.38618e-15
 Energy
    -119.44671999999997
END_CFG

BEGIN_CFG
 Size
    16
 Supercell
    6.6    0    0
    0    6.6    0
    0    0    6.6
 AtomData:  id type    cartes_x    cartes_y    cartes_z    fx    fy    fz
    1    0    6.58918    0.004688    0.000455    0.0600078    -0.0228914    -0.00576698
    2    0    6.59493    0.009886    3.30038    0.0491982    -0.0764062    0.00314776
    3    0    6.59422    3.30186    0.012602    0.0237658    0.00888487    -0.0790358
    4    0    6.58981    3.29008    3.29825    0.0446467    0.0753454    0.0511984
    5    0    3.3012    0.007924    0.009202    -0.0229666    -0.0589131    -0.0526617
    6    0    3.30054    6.59572    3.29839    -0.0255025    -0.00177128    0.0317429
    7    0    3.29847    3.2965    6.59863    0.00569737    0.0481691    -0.031411
    8    0    3.29064    3.29572    3.2902    0.0129395    0.0191847    0.0537951
    9    0    1.66276    1.65513    1.65381    -0.055228    -0.0266507    0.0102438
    10    0    1.6546    1.65013    4.96143    -0.0230687    -0.00546307    -0.0403608
    11    0    1.65355    4.95164    1.63556    -0.0171736    0.0123758    0.0725142
    12    0    1.65575    4.94825    4.95085    -0.0343666    0.0104006    -0.0399295
    13    0    4.95523    1.65054    1.65013    0.00104524    -0.0150274    0.00936892
    14    0    4.95136    1.64397    4.95078    -0.00410101    0.041992    -0.00700126
    15    0    4.95567    4.9449    1.64913    -0.0167511    0.0261384    -0.0112706
    16    0    4.9521    4.95305    4.94021    0.00185757    -0.0353677    0.0354264
 Energy
    -119.44193999999999
END_CFG

BEGIN_CFG
 Size
    16
 Supercell
    6.6    0    0
    0    6.6    0
    0    0    6.6
 AtomData:  id type    cartes_x    cartes_y    cartes_z    fx    fy    fz
    1    0    6.59263    0.002286    0.000438    0.0375856    -0.0170778    -0.00210589
    2    0    6.59688    0.008661    3.30121    0.031871    -0.0564442    -0.00145979
    3    0    6.59644    3.29941    0.006664    0.0172652    0.0154506    -0.0430018
    4    0    6.5936    3.29476    3.29878    0.0254871    0.0493914    0.0292759
    5    0    3.29938    0.004342    0.005472    -0.00964591    -0.0382596    -0.0329665
    6    0    3.30087    6.5961    3.29838    -0.0183209    0.000998606    0.0225746
    7    0    3.30008    3.29667    6.599    -0.000967157    0.0362248    -0.0191276
    8    0    3.29323    3.29542    3.29327    0.013192    0.0183238    0.035163
    9    0    1.65846    1.65331    1.65257    -0.0364322    -0.0160457    0.007266
    10    0    1.65383    1.64978    4.95793    -0.0221595    -0.00508022    -0.0291143
    11    0    1.65344    4.95168    1.64027    -0.0221315    0.00409146    0.0485405
    12    0    1.6539    4.94785    4.95023    -0.0238643    0.00974569    -0.0263958
    13    0    4.95404    1.65107    1.64898    -0.000473837    -0.00990672    0.0154158
    14    0    4.94955    1.64747    4.95206    0.00565108    0.0223847    -0.0153955
    15    0    4.95234    4.94821    1.65055    0.000583763    0.011181    -0.0105895
    16    0    4.95132    4.95301    4.94419    0.00235977    -0.0249779    0.0219208
 Energy
    -119.44465
END_CFG

BEGIN_CFG
 Size
    16
 Supercell
    6.6    0    0
    0    6.6    0
    0    0    6.6
 AtomData:  id type    cartes_x    cartes_y    cartes_z    fx    fy    fz
    1    0    6.58566    0.007847    0.001284    0.0797787    -0.0338908    -0.0163533
    2    0    6.59346    0.011229    3.29922    0.0611288    -0.0990252    0.0126668
    3    0    6.59342    3.30467    0.01756    0.0268946    0.00564329    -0.113204
    4    0    6.58512    3.28451    3.29674    0.0699439    0.105912    0.0752862
    5    0    3.302    0.011433    0.011158    -0.0316969    -0.0855614    -0.0601481
    6    0    3.29933    6.59567    3.29972    -0.0273022    -0.00527798    0.029419
    7    0    3.29819    3.29447    0.00017    0.00953504    0.0710078    -0.0472435
    8    0    3.28885    3.29597    3.28846    0.00651372    0.0201507    0.0681264
    9    0    1.66685    1.65703    1.65423    -0.0686466    -0.0389989    0.0233854
    10    0    1.65458    1.65058    4.96701    -0.0220758    -0.00439609    -0.0642974
    11    0    1.65243    4.95119    1.63084    -0.00300131    0.0230691    0.0917663
    12    0    1.65834    4.94885    4.94921    -0.0505065    0.00870306    -0.0430008
    13    0    4.9576    1.64978    1.65078    -0.00465053    -0.0207275    0.0054709
    14    0    4.95256    1.64231    4.94927    -0.0121623    0.0500219    0.00178311
    15    0    4.95963    4.94207    1.64763    -0.0414163    0.0407725    -0.0101521
    16    0    4.952    4.95239    4.93671    0.00766364    -0.0374026    0.0464953
 Energy
    -119.43802000000001
END_CFG

BEGIN_CFG
 Size
    16
 Supercell
    6.6    0    0
    0    6.6    0
    0    0    6.6
 AtomData:  id type    cartes_x    cartes_y    cartes_z    fx    fy    fz
    1    0    6.58005    0.013669    0.001515    0.109463    -0.0482592    -0.0258531
    2    0    6.59152    0.013208    3.29818    0.0710478    -0.13031    0.0206146
    3    0    6.5942    3.30994    0.025493    0.0265159    -0.00578487    -0.165032
    4    0    6.57781    3.27691    3.29411    0.11077    0.149017    0.111738
    5    0    3.30316    0.016206    0.011153    -0.0444395    -0.125323    -0.0544072
    6    0    3.29529    6.59182    3.30256    -0.0188496    0.0104478    0.013663
    7    0    3.29959    3.28925    0.002385    0.0113871    0.111335    -0.060127
    8    0    3.28674    3.29834    3.2886    -0.00705805    0.00483646    0.0729775
    9    0    1.67336    1.65905    1.65494    -0.0870478    -0.0517603    0.0356333
    10    0    1.65337    1.64951    4.97235    -0.0184553    0.00869048    -0.0860253
    11    0    1.64947    4.9512    1.62383    0.0270159    0.032417    0.114896
    12    0    1.66297    4.95007    4.94665    -0.0796301    -0.00313433    -0.0423752
    13    0    4.96124    1.64844    1.655    -0.015567    -0.0223406    -0.0160439
    14    0    4.95298    1.64077    4.94617    -0.0198629    0.0581832    0.0255532
    15    0    4.96612    4.9405    1.64538    -0.0849241    0.0502058    -0.0117849
    16    0    4.95211    4.95111    4.93169    0.0196346    -0.0382206    0.0665729
 Energy
    -119.43021999999998
END_CFG

BEGIN_CFG
 Size
    16
 Supercell
    6.6    0    0
    0    6.6    0
    0    0    6.6
 AtomData:  id type    cartes_x    cartes_y    cartes_z    fx    fy    fz
    1    0    6.5831    0.010988    0.001861    0.0934917    -0.0440188    -0.0239692
    2    0    6.59189    0.012266    3.29855    0.0693504    -0.115558    0.0189127
    3    0    6.59353    3.30693    0.02127    0.0279716    0.00323567    -0.137805
    4    0    6.58152    3.2805    3.29558    0.0910942    0.128705    0.0923788
    5    0    3.30255    0.014004    0.01178    -0.0375217    -0.106158    -0.0608915
    6    0    3.29752    6.5941    3.30102    -0.025447    0.000435818    0.0239085
    7    0    3.29875    3.29216    0.001195    0.0100124    0.0907003    -0.054211
    8    0    3.28815    3.29685    3.28825    -0.00186876    0.0144186    0.0717316
    9    0    1.67009    1.65783    1.65438    -0.0776944    -0.0434418    0.0315279
    10    0    1.65384    1.65033    4.96995    -0.0184109    0.000237208    -0.0774443
    11    0    1.65121    4.95138    1.62776    0.0114087    0.0260437    0.102195
    12    0    1.66051    4.94941    4.948    -0.0656048    0.00420877    -0.0426262
    13    0    4.95947    1.64926    1.65232    -0.0101223    -0.021981    -0.00322538
    14    0    4.95315    1.64125    4.94762    -0.0185418    0.0544403    0.0131795
    15    0    4.96324    4.94123    1.64643    -0.0639069    0.0455811    -0.0109892
    16    0    4.95148    4.95151    4.93404    0.0157895    -0.0368496    0.0573286
 Energy
    -119.43444
END_CFG

BEGIN_CFG
 Size
    16
 Supercell
    6.6    0    0
    0    6.6    0
    0    0    6.6
 AtomData:  id type    cartes_x    cartes_y    cartes_z    fx    fy    fz
    1    0    6.57287    0.022811    6.59959    0.147256    -0.0573954    -0.0207535
    2    0    6.58791    0.012772    3.29819    0.0803813    -0.161972    0.0175404
    3    0    6.59718    3.31908    0.038104    0.0105259    -0.0401429    -0.251441
    4    0    6.56303    3.2661    3.28917    0.189577    0.204146    0.179794
    5    0    3.30514    0.02141    0.005559    -0.0563811    -0.166663    -0.0166751
    6    0    3.28546    6.5846    3.30496    0.0124011    0.0537087    -0.0200575
    7    0    3.2991    3.2817    0.006994    0.0343824    0.157074    -0.089751
    8    0    3.28217    3.30897    3.28733    -0.0300345    -0.0517454    0.0936377
    9    0    1.68412    1.66617    1.6572    -0.119537    -0.0947199    0.0488751
    10    0    1.65648    1.64632    4.97955    -0.0435272    0.0414024    -0.117338
    11    0    1.64685    4.95097    1.61275    0.0550088    0.0629724    0.152341
    12    0    1.67177    4.95327    4.94471    -0.132595    -0.0325017    -0.0507524
    13    0    4.96763    1.64745    1.66796    -0.0349728    -0.0470392    -0.0878728
    14    0    4.95118    1.63647    4.93853    -0.0093809    0.0792007    0.090238
    15    0    4.97499    4.93344    1.64074    -0.138507    0.095261    -0.00392177
    16    0    4.95411    4.94846    4.92867    0.0354038    -0.0415855    0.0761366
 Energy
    -119.41051999999999
END_CFG

BEGIN_CFG
 Size
    16
 Supercell
    6.6    0    0
    0    6.6    0
    0    0    6.6
 AtomData:  id type    cartes_x    cartes_y    cartes_z    fx    fy    fz
    1    0    6.5739    0.020282    0.000585    0.140256    -0.0546701    -0.0242541
    2    0    6.59009    0.013262    3.29833    0.0748358    -0.153815    0.0188231
    3    0    6.59588    3.31655    0.034467    0.018128    -0.0302456    -0.224934
    4    0    6.56731    3.26914    3.29098    0.16601    0.188955    0.15736
    5    0    3.30405    0.019514    0.006655    -0.0532185    -0.154026    -0.02406
    6    0    3.28909    6.58599    3.3049    0.00202946    0.0436161    -0.014465
    7    0    3.29975    3.28365    0.005888    0.024137    0.14481    -0.0818774
    8    0    3.28319    3.30545    3.28769    -0.0219078    -0.0348812    0.0874575
    9    0    1.68102    1.66394    1.65678    -0.109053    -0.0816625    0.0435719
    10    0    1.65492    1.64766    4.97753    -0.0342515    0.0315097    -0.107193
    11    0    1.64718    4.9509    1.61544    0.0498928    0.0538798    0.143612
    12    0    1.66928    4.9528    4.9452    -0.115061    -0.0259003    -0.0487206
    13    0    4.9659    1.64742    1.66331    -0.0308846    -0.0368042    -0.061376
    14    0    4.95109    1.63801    4.94096    -0.0116601    0.0719399    0.0677426
    15    0    4.97264    4.93625    1.64233    -0.12518    0.0775153    -0.00788793
    16    0    4.9547    4.94919    4.92893    0.0259274    -0.0402206    0.0762007
 Energy
    -119.41733
END_CFG

BEGIN_CFG
 Size
    16
 Supercell
    6.6    0    0
    0    6.6    0
    0    0    6.6
 AtomData:  id type    cartes_x    cartes_y    cartes_z    fx    fy    fz
    1    0    6.56912    0.029791    6.59606    0.177827    -0.0654748    -0.0075906
    2    0    6.58356    0.012923    3.29814    0.0938423    -0.19767    0.011684
    3    0    0.000261    3.32586    0.04656    -0.0143325    -0.0651061    -0.314416
    4    0    6.54918    3.25608    3.28449    0.26475    0.260785    0.234191
    5    0    3.31048    0.027119    0.000846    -0.0780949    -0.202126    0.0172812
    6    0    3.2779    6.57898    3.30692    0.0350853    0.0865239    -0.0487118
    7    0    3.29395    3.27651    0.011711    0.0746313    0.190209    -0.116522
    8    0    3.27901    3.31733    3.28593    -0.0563959    -0.095297    0.11369
    9    0    1.69347    1.67134    1.65928    -0.157152    -0.127582    0.0502911
    10    0    1.66384    1.64301    4.98217    -0.0863409    0.0648429    -0.128505
    11    0    1.64564    4.95182    1.60404    0.0561982    0.0846998    0.178138
    12    0    1.6816    4.95427    4.9417    -0.201343    -0.0484981    -0.0522077
    13    0    4.97174    1.64914    1.68171    -0.0392379    -0.0779231    -0.165217
    14    0    4.9509    1.6327    4.93299    0.00800878    0.0967494    0.152083
    15    0    4.97774    4.928    1.63825    -0.154077    0.137007    -0.000927836
    16    0    4.95161    4.94511    4.9292    0.0766302    -0.04114    0.0767396
 Energy
    -119.38589
END_CFG

BEGIN_CFG
 Size
    16
 Supercell
    6.6    0    0
    0    6.6    0
    0    0    6.6
 AtomData:  id type    cartes_x    cartes_y    cartes_z    fx    fy    fz
    1    0    6.56982    0.028396    6.59708    0.170349    -0.0636196    -0.0120093
    2    0    6.58442    0.012685    3.29809    0.0907378    -0.188708    0.0138986
    3    0    6.59972    3.32462    0.044946    -0.00948519    -0.0607119    -0.303097
    4    0    6.55244    3.25841    3.28531    0.247852    0.247163    0.224779
    5    0    3.30901    0.026087    0.001895    -0.0717148    -0.195357    0.00998578
    6    0    3.27921    6.57993    3.30652    0.0312828    0.0808246    -0.0428466
    7    0    3.2953    3.27762    0.010759    0.0658033    0.183491    -0.11196
    8    0    3.27981    3.31556    3.28607    -0.05086    -0.0867039    0.110637
    9    0    1.69127    1.67054    1.65851    -0.148245    -0.122846    0.0526679
    10    0    1.66206    1.64355    4.9819    -0.0762333    0.0613031    -0.128395
    11    0    1.64601    4.95134    1.60601    0.0572842    0.0823967    0.172652
    12    0    1.67948    4.95425    4.9427    -0.186822    -0.0463929    -0.05303
    13    0    4.97076    1.64874    1.67901    -0.0385178    -0.0718962    -0.149534
    14    0    4.95101    1.63364    4.93407    0.00364164    0.0917532    0.139414
    15    0    4.97772    4.92898    1.6385    -0.153601    0.129174    -0.0012715
    16    0    4.95197    4.94566    4.92862    0.0685284    -0.0398692    0.0781103
 Energy
    -119.39154
END_CFG

BEGIN_CFG
 Size
    16
 Supercell
    6.6    0    0
    0    6.6    0
    0    0    6.6
 AtomData:  id type    cartes_x    cartes_y    cartes_z    fx    fy    fz
    1    0    6.57084    0.027161    6.59772    0.161672    -0.0627848    -0.0149528
    2    0    6.58517    0.012603    3.29795    0.0879831    -0.180155    0.0160526
    3    0    6.59925    3.32317    0.043293    -0.00579826    -0.055166    -0.291844
    4    0    6.55539    3.26068    3.28596    0.231742    0.234073    0.215791
    5    0    3.30764    0.024723    0.00332    -0.0645868    -0.186493    -3.87838e-05
    6    0    3.28049    6.58093    3.30579    0.027546    0.0748886    -0.0339536
    7    0    3.29636    3.27895    0.009937    0.0585994    0.174782    -0.107952
    8    0    3.28036    3.31378    3.28622    -0.0445848    -0.078149    0.108086
    9    0    1.68925    1.66974    1.658    -0.13934    -0.117172    0.054016
    10    0    1.66048    1.64426    4.98177    -0.0664439    0.0565716    -0.128611
    11    0    1.64637    4.95121    1.60762    0.0573991    0.0783441    0.16886
    12    0    1.67716    4.95413    4.94353    -0.171091    -0.0432871    -0.0544975
    13    0    4.97011    1.64823    1.67633    -0.0391147    -0.0656973    -0.133951
    14    0    4.95112    1.63438    4.9353    -0.000995549    0.0880871    0.126486
    15    0    4.97756    4.92973    1.63888    -0.151943    0.121971    -0.00150124
    16    0    4.95248    4.94633    4.9284    0.0589567    -0.0398119    0.078009
 Energy
    -119.39684999999999
END_CFG

BEGIN_CFG
 Size
    16
 Supercell
    6.6    0    0
    0    6.6    0
    0    0    6.6
 AtomData:  id type    cartes_x    cartes_y    cartes_z    fx    fy    fz
    1    0    6.56818    0.033815    6.59342    0.193884    -0.0735974    0.00376782
    2    0    6.58133    0.013543    3.29896    0.10025    -0.226296    0.00445143
    3    0    0.003186    3.32984    0.050725    -0.0387094    -0.076416    -0.345051
    4    0    6.54058    3.24856    3.28192    0.307807    0.3049    0.262456
    5    0    3.31529    0.030801    6.59633    -0.095752    -0.229873    0.04356
    6    0    3.27394    6.57796    3.30685    0.0472512    0.0925123    -0.0642394
    7    0    3.28946    3.27233    0.014697    0.108297    0.219162    -0.12769
    8    0    3.27615    3.32109    3.28599    -0.067994    -0.109455    0.118943
    9    0    1.69866    1.67354    1.66027    -0.180216    -0.144246    0.0525452
    10    0    1.66905    1.64297    4.98441    -0.122426    0.0656774    -0.138642
    11    0    1.64519    4.95275    1.59902    0.050298    0.0950376    0.188003
    12    0    1.68867    4.95392    4.93762    -0.249322    -0.0476979    -0.043696
    13    0    4.97426    1.64995    1.69016    -0.039847    -0.0959552    -0.214591
    14    0    4.94891    1.63112    4.93012    0.0316517    0.104811    0.190163
    15    0    4.97756    4.92459    1.63851    -0.152246    0.161724    -0.00364587
    16    0    4.94957    4.94321    4.931    0.107074    -0.040288    0.0736659
 Energy
    -119.36755000000002
END_CFG

BEGIN_CFG
 Size
    16
 Supercell
    6.6    0    0
    0    6.6    0
    0    0    6.6
 AtomData:  id type    cartes_x    cartes_y    cartes_z    fx    fy    fz
    1    0    6.56742    0.036725    6.59202    0.204792    -0.0760901    0.00772235
    2    0    6.57951    0.014945    3.29963    0.108475    -0.258686    0.00236525
    3    0    0.005758    3.33385    0.053058    -0.0605724    -0.0907823    -0.373335
    4    0    6.53366    3.24058    3.27774    0.342794    0.352162    0.29651
    5    0    3.31941    0.034443    6.59274    -0.107917    -0.262919    0.069037
    6    0    3.27158    6.57887    3.30718    0.0522629    0.0879504    -0.08127
    7    0    3.28579    3.26695    0.01792    0.137421    0.25565    -0.137234
    8    0    3.27257    3.32509    3.28669    -0.0737545    -0.118068    0.120569
    9    0    1.70339    1.67443    1.66145    -0.203025    -0.156035    0.0557757
    10    0    1.67535    1.64416    4.98798    -0.16747    0.0653937    -0.153858
    11    0    1.64238    4.95292    1.59326    0.0578275    0.105417    0.203446
    12    0    1.6965    4.95573    4.93419    -0.299929    -0.0533546    -0.0405685
    13    0    4.97612    1.65089    1.69765    -0.0378457    -0.11461    -0.262231
    14    0    4.94544    1.62901    4.92623    0.0662257    0.114397    0.230682
    15    0    4.97779    4.92058    1.6397    -0.15907    0.188024    -0.00948988
    16    0    4.94734    4.94082    4.93255    0.139784    -0.0384481    0.0718783
 Energy
    -119.34579000000001
END_CFG

BEGIN_CFG
 Size
    16
 Supercell
    6.6    0    0
    0    6.6    0
    0    0    6.6
 AtomData:  id type    cartes_x    cartes_y    cartes_z    fx    fy    fz
    1    0    6.56964    0.043881    6.58825    0.205541    -0.0859254    0.0179034
    2    0    6.57436    0.017937    3.29846    0.129173    -0.313392    0.00553086
    3    0    0.012089    3.34279    0.056342    -0.113365    -0.120825    -0.413968
    4    0    6.52503    3.22823    3.27164    0.376149    0.42832    0.348601
    5    0    3.32592    0.038191    6.58685    -0.118117    -0.302015    0.104085
    6    0    3.26887    6.57979    3.30549    0.0553637    0.0768037    -0.0951418
    7    0    3.27657    3.26003    0.023156    0.203654    0.300494    -0.157099
    8    0    3.26428    3.3292    3.28719    -0.0606917    -0.1238    0.131125
    9    0    1.71145    1.67483    1.66567    -0.241807    -0.160989    0.0474423
    10    0    1.6821    1.64737    4.99275    -0.215883    0.055583    -0.170823
    11    0    1.63655    4.95681    1.58404    0.0786353    0.103713    0.232592
    12    0    1.70907    4.95838    4.92876    -0.375926    -0.0548177    -0.0415552
    13    0    4.97826    1.65415    1.707    -0.0311279    -0.151486    -0.326344
    14    0    4.94185    1.61985    4.92182    0.101043    0.159056    0.283395
    15    0    4.97862    4.9124    1.64364    -0.175777    0.238226    -0.0205735
    16    0    4.94531    4.93617    4.93894    0.183136    -0.0489467    0.0548308
 Energy
    -119.30781999999999
END_CFG

BEGIN_CFG
 Size
    16
 Supercell
    6.6    0    0
    0    6.6    0
    0    0    6.6
 AtomData:  id type    cartes_x    cartes_y    cartes_z    fx    fy    fz
    1    0    6.57107    0.047479    6.58448    0.208006    -0.0852745    0.0342936
    2    0    6.57037    0.02045    3.29804    0.149693    -0.349547    0.00142935
    3    0    0.016151    3.34977    0.058831    -0.149275    -0.149055    -0.439922
    4    0    6.5219    3.22151    3.26774    0.383655    0.472442    0.381468
    5    0    3.33056    0.041035    6.58249    -0.128649    -0.322241    0.129294
    6    0    3.26883    6.58104    3.30426    0.0480176    0.063202    -0.104418
    7    0    3.26988    3.25811    0.02589    0.248819    0.316043    -0.169077
    8    0    3.25855    3.33031    3.28676    -0.0437168    -0.120795    0.141303
    9    0    1.71627    1.67419    1.67007    -0.266138    -0.157725    0.0322047
    10    0    1.68537    1.64739    4.99604    -0.239726    0.0608715    -0.176984
    11    0    1.63401    4.96014    1.57906    0.0876179    0.0975759    0.24883
    12    0    1.71527    4.96023    4.92555    -0.416912    -0.0616465    -0.0430769
    13    0    4.97921    1.6543    1.71253    -0.0246715    -0.159899    -0.368494
    14    0    4.9404    1.61206    4.91886    0.117337    0.205331    0.318465
    15    0    4.9793    4.90768    1.64629    -0.184634    0.260263    -0.0270563
    16    0    4.94286    4.93431    4.94311    0.210577    -0.0695449    0.0417393
 Energy
    -119.28218999999999
END_CFG

BEGIN_CFG
 Size
    16
 Supercell
    6.6    0    0
    0    6.6    0
    0    0    6.6
 AtomData:  id type    cartes_x    cartes_y    cartes_z    fx    fy    fz
    1    0    6.57042    0.055405    6.57609    0.232261    -0.084429    0.0778354
    2    0    6.56449    0.020959    3.29867    0.198975    -0.403806    -0.0205716
    3    0    0.018475    3.36506    0.064584    -0.18616    -0.208123    -0.482429
    4    0    6.51873    3.20707    3.26453    0.391933    0.556319    0.424314
    5    0    3.3397    0.048727    6.57243    -0.164063    -0.362991    0.184352
    6    0    3.27423    6.58099    3.30055    0.00627146    0.0456811    -0.12352
    7    0    3.2588    3.25658    0.03188    0.308446    0.33943    -0.195601
    8    0    3.25009    3.33027    3.28621    -0.0195548    -0.113508    0.160609
    9    0    1.72365    1.67289    1.67589    -0.303587    -0.145539    0.0110421
    10    0    1.68972    1.64581    5.00085    -0.273973    0.0843325    -0.186385
    11    0    1.62973    4.9678    1.57222    0.0980352    0.0752846    0.273662
    12    0    1.72608    4.96535    4.9225    -0.485798    -0.0892973    -0.0506166
    13    0    4.98177    1.65296    1.72019    -0.0165381    -0.163845    -0.437688
    14    0    4.93773    1.59643    4.91078    0.143354    0.3108    0.387222
    15    0    4.97805    4.89928    1.65068    -0.187222    0.292155    -0.0315539
    16    0    4.93834    4.93442    4.95194    0.257621    -0.132464    0.00932768
 Energy
    -119.23074
END_CFG

BEGIN_CFG
 Size
    16
 Supercell
    6.6    0    0
    0    6.6    0
    0    0    6.6
 AtomData:  id type    cartes_x    cartes_y    cartes_z    fx    fy    fz