BEGIN_CFG
 Size
    100
 Supercell
        10.211495      0.000000      0.000000
         0.000000     10.211495      0.000000
         0.000000      0.000000     10.211495
 AtomData:  id type       cartes_x      cartes_y      cartes_z           fx          fy          fz
             1    0       1.164630      0.812390      9.479190     0.038104   -1.432631    1.709515
             2    0       4.332980      4.432830      1.688620    -1.534878   -0.229558   -1.993891
             3    0       3.333300      3.090960      9.804220    -0.290517    0.335968    1.901138
             4    0       9.073500      3.710210      1.175140     0.691258   -0.346755    1.355454
             5    0       5.035230     10.033970      7.292190    -0.477646   -2.768976    3.202698
             6    0       6.332690      0.298300      2.414280    -0.068098    1.325721   -0.358510
             7    0       8.231830      4.406630      6.916920    -0.140994    0.606571   -1.835090
             8    0       2.615590      4.177940      4.634450    -4.078310    2.857576   -0.438850
             9    0       3.517640      9.576360      2.612950     1.769112    0.050088    0.649113
            10    0       7.490040      0.112550      7.621890     0.108874   -1.889775    0.438901
            11    0       8.408900      0.460510      5.562570     2.253682    1.405361   -0.718993
            12    0       1.879040      2.248490      8.145060    -0.055080    4.599679   -1.256331
            13    0       9.472120      1.279980      8.239760    -0.425454   -0.241648   -0.484788
            14    0       6.308800      4.083190      2.593860     0.555804   -2.035771    0.675437
            15    0       0.712320      4.784160      3.218730     0.148684    0.477119   -0.111705
            16    0       2.760240      9.412360      0.434810    -0.409066   -0.706809    0.669157
            17    0      10.158930      2.589390      3.126210    -0.625478    1.839426    2.049277
            18    0       4.743660      5.535830      3.605360     0.413642    0.402603    1.389356
            19    0       2.269170      7.282790      0.083910     1.380541   -0.045515   -1.134620
            20    0       6.955650      8.347000      1.530570     0.012083   -1.069104    0.496510
            21    0       8.473270      7.642220      7.686940     1.455622   -0.346009   -0.159513
            22    0       4.455920      9.734170      5.250790    -1.757040   -3.083241    0.462768
            23    0       8.972470      9.388770      9.205750     0.162127    0.797675   -1.626587
            24    0       4.235820      7.503690      1.740230     0.603730    1.851760   -2.594673
            25    0       7.921400      1.974840      2.608770     0.556506   -0.323578    1.751382
            26    0       9.689870      5.500050      9.949640    -0.081071   -0.843538    0.175206
            27    0       9.559930      0.458670      3.465620     0.435338    0.001481    3.062580
            28    0       3.450750      2.187110      5.830240     0.901296    0.745726    1.456970
            29    0       4.370730      2.387000      8.048240    -1.529705   -0.982466   -0.077434
            30    0       6.851430      8.742110      5.957450    -1.242898   -1.208516   -0.435927
            31    0       4.012060      7.777830      7.164450     1.715242    1.037983    0.092525
            32    0       2.752040      1.360060      0.975670    -1.238792    0.922865    0.541741
            33    0       3.298960      5.995840      6.018490    -1.136912    1.076559   -0.550391
            34    0       6.025770      3.661050      7.376910     1.882694    3.233568    0.305948
            35    0       2.470650      0.443710      4.781600    -0.785420   -0.653220    0.853254
            36    0       0.299240      9.442090      7.526090     0.370924   -3.552952    0.896381
            37    0       4.430240      1.118090      3.715820     1.230775    0.713689   -1.584867
            38    0       9.122700      8.597910      5.578670     3.501963   -0.120280    1.208387
            39    0       2.139930      3.779470      1.604240    -0.674268   -0.033244   -0.021783
            40    0       7.019730      9.806290      9.998470    -0.857320    0.978317   -1.045879
            41    0       0.057320      4.918650      5.460580    -0.992362   -0.603440   -1.083839
            42    0       1.633990      4.271010      6.925930     3.946478    0.945842   -1.439493
            43    0       2.367910      2.243330      3.288940     2.232692    0.280073   -3.933259
            44    0       0.558090      3.422880      9.821630    -2.637883   -3.726332   -1.144691
            45    0       4.526820      7.906300      9.384440    -0.524656    2.249706    1.051888
            46    0       5.598900      3.779500      9.779730    -1.395467    0.464639   -1.253468
            47    0       0.896090      6.229220      1.358930    -2.102921   -1.863025    0.608135
            48    0       6.610140      1.786270      8.781180    -0.267152   -0.053482    2.310571
            49    0       1.897540      7.962060      2.511440     2.070348    2.377019    0.117350
            50    0       5.991560      6.213990      1.824010    -0.455966   -0.068538   -0.255135
            51    0       2.131920      6.339680      7.925930    -0.112268    0.892600    0.682736
            52    0       7.105250      6.829750      3.544750    -0.689709   -3.214870   -0.198373
            53    0       2.397890      8.766770      8.447380    -0.587897   -0.497833   -0.057490
            54    0       8.832400      7.484410      0.099040    -1.327938    1.203242    0.606137
            55    0       6.429780      0.260660      4.661460    -0.118640    1.832105   -1.120730
            56    0       9.188240      2.915800      5.212620    -1.129899   -0.326305   -1.117022
            57    0       3.560570      4.544890      7.994270     0.674134   -0.803329    0.119440
            58    0      10.066420      8.172730      2.223590    -3.551132   -0.547285    1.730722
            59    0       2.235660      8.351680      5.990070     0.524922    1.498693    0.401451
            60    0       8.621860      9.862010      1.776190    -0.800116   -0.772523   -1.570708
            61    0       6.550300      6.836000     10.036920    -1.449390    2.043088   -1.365439
            62    0       6.341680      8.255520      8.083830    -0.306690   -0.088937    1.145444
            63    0       9.455070      6.605660      4.059520     1.455287    0.741639   -0.885361
            64    0       0.448220      9.221260      0.398750     0.911986   -0.000969    0.597720
            65    0       3.703670      7.570650      4.024140    -0.977878    1.473579    1.888784
            66    0       1.266800      2.454070      5.006760    -2.569408    1.751618    3.423429
            67    0       1.520500      0.260830      2.552260    -2.019253   -0.561290   -1.002728
            68    0       8.367640      4.330560      3.285020     1.722743    0.336451    2.190574
            69    0       6.647740      4.705170      5.099850     0.124389    1.522259    0.337130
            70    0       0.415570      7.004300      6.221220    -1.497669    2.165995    2.077171
            71    0       8.853130      1.214600      0.216180    -2.252979    0.606355   -1.391238
            72    0      10.136730      5.501280      7.764180    -0.815905    0.049706    0.678737
            73    0      10.185780      3.146310      7.314330    -3.168872   -1.609894    0.818482
            74    0       0.378290      1.904010      1.218130     3.190014   -0.975383   -0.989783
            75    0       1.901460      4.898550      9.797880     2.856672    4.212485   -0.458905
            76    0       1.703460      6.613290      4.572210    -0.405149   -1.216192   -2.827663
            77    0       3.971350      0.440930      9.227540     1.354972    0.338138    0.508593
            78    0       5.351410      5.906960      7.732880     1.308329    0.623060   -0.308308
            79    0       7.886380      6.567880      5.614930    -0.191336   -1.639835    2.535899
            80    0       7.639190      5.651340      8.563020     0.018223   -0.224773   -0.153709
            81    0       8.727810      6.222910      1.911280    -0.187051   -0.609040    0.291708
            82    0       7.939300      8.718460      3.768280     1.436286    3.225921   -1.408158
            83    0       7.797080      2.190810      6.856440     1.659918    1.487968    0.262714
            84    0       5.720530      1.620200      6.552620    -0.011578    0.799753   -4.319971
            85    0       4.722820      2.123680      1.466520     0.150471   -0.419014    1.330394
            86    0       6.788600      2.329070      0.824440     0.566292   -0.290758   -1.183033
            87    0       5.085870      9.816720      0.727960    -1.450500   -0.921083    0.298804
            88    0       0.942660      9.100530      4.323100    -2.302551   -0.916646    0.385290
            89    0       0.571950      0.788890      6.189340    -0.970185    0.818065   -1.266122
            90    0       7.227680      4.890050      0.586040     1.063491   -1.415330   -0.534933
            91    0       2.736660      0.529400      7.427890     0.039696   -2.381697   -4.064490
            92    0       6.773480      2.624110      4.570680    -0.421470   -2.077878   -0.421902
            93    0       2.806260      6.043090      2.454950     0.182535   -3.971082    0.670275
            94    0       4.155200      5.841060      9.910810     0.786883   -1.653660    1.202735
            95    0       4.397130      3.318580      3.909260     3.000412   -2.319899   -3.192619
            96    0       0.399490      7.501670      8.896240     0.193997    0.754225   -0.495901
            97    0       8.449830      3.459870      9.251530    -0.592322   -0.771719   -1.961310
            98    0       5.597950      8.600030      3.467570     0.320665   -0.418300   -0.050096
            99    0       4.479680      4.314610      5.783240     2.764982   -1.317821    2.610542
           100    0       5.430560      6.844220      5.357130     0.948321    0.237787    1.659155
 Energy
       -406.754199910000
 PlusStress:  xx          yy          zz          yz          xz          xy
       468.58373   470.26174   470.43117    -6.72963     1.42910     4.96935
 Feature   EFS_by	VASP
END_CFG

BEGIN_CFG
 Size
    100
 Supercell
        10.211495      0.000000      0.000000
         0.000000     10.211495      0.000000
         0.000000      0.000000     10.211495
 AtomData:  id type       cartes_x      cartes_y      cartes_z           fx          fy          fz
             1    0       0.605710      1.349520      0.046770    -1.186519    1.186596   -1.710852
             2    0       1.146290      7.636050      4.009610    -0.087594    1.447489    0.082445
             3    0       2.972480      5.846790      9.301140    -1.103792    0.401233   -0.586276
             4    0       0.637010      3.028760      1.994020     1.239654   -1.586724    0.672895
             5    0       4.088790      0.460450      1.631700     3.649640   -3.628039    1.640691
             6    0       5.400190      0.962090      6.308140    -0.831328    1.269390   -2.830123
             7    0       6.108330      5.222480      3.299260     0.842734   -0.271039    0.739833
             8    0       1.121380      2.695330      7.896850    -3.564956   -1.250113    2.328869
             9    0       0.276080      0.635430      2.089550     2.670616   -0.862582    1.320310
            10    0       6.873080      7.259660      5.180690    -0.615597   -0.244969    0.617626
            11    0       8.479000      6.779480      6.946840    -1.620989   -3.079429   -2.825177
            12    0       4.774650      3.443710      6.374270    -0.027557   -0.632594   -0.628194
            13    0       7.652240      8.739160      6.603770    -1.217948    3.731840   -0.512142
            14    0       6.505190      9.795580      2.364730    -1.888182    0.503934    1.665339
            15    0       9.308050      6.996530      0.166870    -4.363060    1.268863    1.498499
            16    0       8.420370      1.003300      3.405940    -0.123958   -0.137638    1.160362
            17    0       1.183470      0.898380      6.262070    -4.011095   -2.638122   -1.169055
            18    0       9.261250      3.103880      9.448610     2.736933    0.373743    2.228986
            19    0       1.775450      8.194200      9.515840     1.036459   -2.688517   -1.844654
            20    0       8.589160      3.030890      4.643480     1.171172    0.767419    0.391921
            21    0      10.149110      9.237870     10.069820    -2.920664    0.154474    0.911128
            22    0       4.870760      8.186480      5.885560    -0.750024   -0.372913   -1.114215
            23    0       0.273350      6.080960      5.716150     0.457583   -1.043750   -0.742714
            24    0       2.737720      1.915870      1.008930    -3.393883    3.956260   -0.891625
            25    0       5.276740      9.579280      7.607920     2.037009   -1.420255    3.430079
            26    0       5.982930      7.708220      3.254450    -0.461499    0.034802   -0.083593
            27    0       6.802540      8.319100      0.684250     2.294277   -4.948706    1.101324
            28    0       7.676640      8.843220      8.950030     1.255052    2.449736   -1.279538
            29    0       7.158210      0.857130      7.685310    -0.039673   -1.299427    0.352803
            30    0       4.309220      5.518670      7.244450     0.138370    1.731273    1.331621
            31    0       8.405330      8.632850      3.674300    -1.666368    0.979897    1.629504
            32    0       4.093020      9.696340      9.557740     0.620426    0.099735   -0.512370
            33    0       2.346260      8.748510      2.084710    -0.798585   -1.562272    5.024158
            34    0       8.837930      1.936510      1.265000     1.129742    2.122758    1.288717
            35    0       3.959730      1.585790      4.612610     4.086743    0.662798   -2.334929
            36    0       6.072400      2.905380      8.341180     2.259023    2.714543    0.995862
            37    0       2.961780      4.557980      1.620450    -1.159558   -1.915488   -0.817551
            38    0       9.995940      7.326560      8.185620     3.571005    1.111649    2.417172
            39    0       1.290250      3.710080     10.091230     1.889702   -0.220553   -1.031355
            40    0       2.136230      9.907720      0.514380    -0.406468    4.538265   -2.369733
            41    0       4.400800      2.630170      2.300060     0.451173   -0.771282    0.469798
            42    0       3.444030      7.715340      7.958900     0.225478    1.193287   -0.731853
            43    0       6.815450      0.009730      4.767270     2.971749    0.110366    1.234894
            44    0       2.759520      4.081880      7.902290    -0.775137   -1.184044    0.279171
            45    0       0.447330      6.256530      2.494760     0.712026   -0.352521   -2.026497
            46    0       8.030070      4.332710      2.661700     1.428163   -1.663878    2.768175
            47    0       2.434990      6.768910      1.143560     2.276745    0.601581    3.396769
            48    0      10.127410      4.908310      8.079450     4.509050    1.574889    3.544525
            49    0       2.684740      7.019460      5.396450     1.879836   -1.358045    1.981891
            50    0       9.911300      4.687130      1.022040    -1.008385    0.492416    1.420667
            51    0       8.908010      4.517510      6.515370     0.311782   -2.566502   -3.198631
            52    0       2.776380      4.554530      5.761910    -0.664620   -0.035100   -1.651915
            53    0       1.331200     10.160300      8.403480    -0.397691   -0.495693    0.056088
            54    0       6.666270      1.794250      1.948500    -2.089805   -0.809070    2.149864
            55    0       6.898210      2.628480      6.249550     1.663645    0.848302   -0.147872
            56    0       0.301010      2.030210      4.086420     1.361056   -0.374846    0.605317
            57    0       7.123280      2.553470      0.080260    -0.980509   -0.292254   -4.086290
            58    0       8.780910      6.300760      4.188150     3.602201    1.690747   -0.856243
            59    0       2.479590      5.468590      3.733580     0.056084    3.357713   -1.379096
            60    0       4.386420      7.314850     10.007610     1.040040   -1.157037   -2.552385
            61    0       7.400720      6.718770      8.852120     2.069818   -1.597036    3.391474
            62    0       5.649580      7.348270      7.817120     0.334452    0.060449   -0.111002
            63    0       2.843170      9.718550      5.062040    -3.215534    0.907633   -1.832453
            64    0       9.125240      0.671990      5.813040    -1.125806   -0.332971   -1.086578
            65    0       4.829150      9.788800      4.140140     1.090609    0.659095   -2.161561
            66    0       4.273540      1.920470      8.038450     0.837990   -0.901208   -2.093050
            67    0       4.849540      2.022860     10.189020     0.761801   -1.610991    0.827743
            68    0       2.280180      3.377500      3.625490    -0.574131   -2.035659    0.392152
            69    0       2.490140      1.226950      3.114990    -2.876786   -2.940156   -0.027002
            70    0       4.655460      8.406290      1.460020    -0.370414    2.303801    3.608202
            71    0       9.588750      9.706370      7.720050    -1.655189   -0.380889   -0.718077
            72    0       3.818470      3.953530      9.782890     1.526758   -1.566168    1.482991
            73    0       1.849550      6.181540      7.271120    -1.100097   -1.494082    2.281589
            74    0       8.995470      2.314470      7.457880     0.466409   -0.931330   -1.983612
            75    0       8.537010      9.901750      1.472390    -0.871920   -0.978262   -2.407583
            76    0       0.146940      4.546470      3.712050    -0.853040   -1.504880    1.651420
            77    0       2.549400      1.560590      8.985780    -0.088063   -0.313838    2.972839
            78    0       5.585330      5.475690      9.270600    -0.274792   -1.679575    1.131856
            79    0       7.468260      5.077060      5.139790    -3.968169   -2.404225   -1.905924
            80    0       7.882840      4.583580      0.553490    -1.898474    2.635993   -2.229387
            81    0       5.740220      3.984660      1.151810    -1.176563    0.926002   -0.367344
            82    0      10.031100      8.360390      2.178890     1.866084    0.667723   -1.694540
            83    0       0.780860      3.488930      5.990620    -1.446391    1.351067   -3.114795
            84    0       6.519660      2.568620      4.041600    -1.828849   -0.043363   -0.963907
            85    0       6.336080     10.155650      0.014810    -1.720467    5.496468   -2.430060
            86    0       8.006020      6.858000      2.285120     1.522377    0.211654   -2.474349
            87    0       8.583000      0.963610      9.361040     0.464852   -2.295911    0.262849
            88    0       1.546220      8.400860      6.748710    -2.688403    0.915371    0.668361
            89    0       2.799690      2.121890      6.170230     0.710313    3.159730    2.319408
            90    0       3.137420      9.926650      7.154810     1.321035    1.469111    1.585944
            91    0       6.418620      4.981930      7.013760    -0.475548    0.325836   -0.041531
            92    0       9.708930      8.241340      5.615530    -0.024486    1.604422    0.194182
            93    0       4.380900      6.121800      2.303130    -2.555293    1.158787    1.104928
            94    0       3.597580      8.059690      3.786670     1.131550   -1.971874   -3.172074
            95    0       0.931730      6.082880     10.153290    -0.042464   -1.312561   -3.405822
            96    0       0.422350      9.806960      4.070980     0.970999    0.122469    1.472843
            97    0       7.947410      4.542000      8.488700    -1.677918   -0.164358    1.298207
            98    0       4.830940      5.744110      5.119190     0.479010    2.318595   -0.543448
            99    0       6.250750      6.190120      1.285970    -0.023807    0.339747   -3.952878
           100    0       4.523010      3.869100      4.042760    -0.441178   -0.687211    1.247560
 Energy
       -398.628543760000
 PlusStress:  xx          yy          zz          yz          xz          xy
       489.02943   457.72159   535.65414    -6.46649    19.26514     7.42252
 Feature   EFS_by	VASP
END_CFG

BEGIN_CFG
 Size
    100
 Supercell
        10.211495      0.000000      0.000000
         0.000000     10.211495      0.000000
         0.000000      0.000000     10.211495
 AtomData:  id type       cartes_x      cartes_y      cartes_z           fx          fy          fz
             1    0       1.016690      0.922770      0.445580    -4.141950   -0.062307    0.789318
             2    0       1.481010      7.724220      5.878500     0.121780   -0.703286   -0.297888
             3    0       6.071310      7.163360      8.916370     1.088170   -2.886964   -0.093218
             4    0       0.843010      4.880670      2.413600     0.085410    1.383263    0.145683
             5    0       3.102130      2.373640      3.967700     2.683387    1.407786    1.615336
             6    0       4.552480      4.303070      3.735230     1.571392   -2.257241    0.848248
             7    0       7.080740      3.826510      3.841040    -0.911261    0.713877   -0.139289
             8    0       8.665460      3.190320     10.127670    -0.776073    2.174796    0.042090
             9    0       8.501230      2.951880      2.130710     0.470453    1.332403   -0.168139
            10    0       7.924030      5.862200      4.616920    -0.760373   -1.651402    1.043511
            11    0       8.236810      7.364950      3.121720     0.474203    3.366058   -0.070326
            12    0       5.506310      2.282690      4.705150    -2.276630   -0.835684   -2.127789
            13    0       8.810230      0.084650      4.416620    -0.270792   -0.372146    0.479469
            14    0       6.688070      0.055650      1.020610     0.973998    1.835788    0.715578
            15    0       7.905280      6.860650      0.953610    -0.662301   -0.106170   -1.090112
            16    0       1.610720      9.092430      1.601190     0.460431    0.701470   -0.358920
            17    0       1.600770      9.418900      8.796920    -2.430333    2.378956    0.022168
            18    0       6.988050      0.652620      8.687640     1.881501   -0.654462   -0.593738
            19    0      10.033980      5.271120      0.462830    -1.731762    1.181488   -0.786491
            20    0       7.082270      1.482790      3.120450    -1.065635    0.550505   -0.994664
            21    0       0.208830      7.298870      1.806360    -1.051980    0.081102   -0.514120
            22    0       7.056670      5.665850      6.964950    -2.015389   -0.159592    1.350881
            23    0       8.982170      8.262890      5.437320     1.463566    0.970803   -1.986569
            24    0       1.264920      4.753030      9.172150     0.823461    0.266506    0.696151
            25    0       5.984160      9.046420      7.441430     0.335968   -0.011393    1.287470
            26    0       6.031010      8.244480      1.866630    -1.384388   -2.310384   -1.342110
            27    0       5.116840      8.083810      4.193470    -1.276258   -0.263136   -0.500480
            28    0       7.573420      8.815310      9.847400     2.682570   -0.346463   -0.420558
            29    0       5.185360      1.475770      9.656820    -1.706356   -1.072615    1.939996
            30    0       4.824130      6.892840      7.053230     0.902355    2.222820   -0.757498
            31    0       9.897130      0.958870      2.425110     1.797676    0.554029    1.282233
            32    0       5.404530      8.914030      9.814320    -0.800151    3.429282   -0.297000
            33    0       2.760830      8.980320      4.437330     0.335256    0.386933   -0.780571
            34    0       6.828840      9.519470      3.337460     1.992940    0.263716    0.884027
            35    0       3.310410      1.255220      6.009200    -0.637571    0.011595   -1.111533
            36    0       5.842690      3.360910      6.595180     2.127998   -0.052153    0.833339
            37    0       1.342040      5.443040      5.853940     0.436111   -0.178808    1.542136
            38    0       8.818470      4.979040      8.425610     0.873367    0.130342   -0.003514
            39    0       3.928850      6.625100      9.354250    -0.446778   -0.987532    1.132765
            40    0       2.628950      1.301210      2.165520    -0.879100   -0.301960   -0.817197
            41    0       0.429480      3.075280      1.114100     1.449776   -0.554623    0.094599
            42    0       3.121320      5.470410      7.522150    -1.886532    0.378748   -0.802869
            43    0       6.866280      7.765460      5.471190    -1.054523   -0.118667    0.117372
            44    0       6.945510      5.084220      9.640340     1.163957   -0.636309    0.993158
            45    0       2.103850      6.742410      3.035970    -1.787705    0.513811    0.905472
            46    0       4.971810      2.302540      2.189900    -0.491681    0.333601    0.401491
            47    0       3.631780      8.137940      2.403860     1.433374    1.638716   -0.244894
            48    0       0.651530      6.403160      7.822160     1.663621    0.555408    0.354978
            49    0       4.021170      5.868360      2.399620    -0.252753    1.006248   -2.134216
            50    0       9.788160      4.455300      4.681840    -0.052725    0.110684    0.168447
            51    0      10.209000      3.829010      6.898120    -2.636807    0.436039   -0.874230
            52    0       3.504650      6.628870      5.064600    -1.599642    0.714979    0.015806
            53    0       0.310760      2.629230      9.068360     1.607025    0.544891   -0.289324
            54    0       2.974380      0.716610     10.209730     3.189620   -1.220088   -0.601141
            55    0       5.202700      1.037700      7.050810     2.161547    0.614922    0.805725
            56    0       1.405480      2.623120      5.543950     0.533169    1.533196    0.165488
            57    0       6.791430      2.375890      0.771220    -0.540925    0.580624    0.350503
            58    0       0.054730      6.541980      4.194520     0.361933    2.330364   -0.568414
            59    0       1.399760      9.904220      6.277610     2.000125   -3.407366   -0.815743
            60    0       7.714480      7.691980      7.606740     2.285693    0.594965   -0.324767
            61    0       6.539520      2.988040      8.680110    -1.240183    0.240667    1.826712
            62    0       9.170690      7.064140      9.257030     0.680034    0.420406    0.767781
            63    0       3.678220     10.137510      8.330490     1.532413   -0.081683   -0.337040
            64    0       1.600670      0.786870      4.156520    -1.567401   -1.328522   -0.050581
            65    0       4.518940      0.116670      1.542430    -0.105195   -0.864126    0.403538
            66    0       1.953030      3.512080      7.624420     3.474620   -0.871148   -1.116823
            67    0       2.918480      7.988730      7.859630    -0.653081   -1.724949   -1.125116
            68    0       0.550130      2.938000      3.465700     2.104541   -1.214290   -1.878280
            69    0       6.028620      9.968250      5.370310     2.212674   -0.068995    0.833416
            70    0       3.448140      8.564290      0.252120    -2.333256   -0.264683   -0.017896
            71    0      10.081750      1.119570      6.140270    -3.272808    2.085548   -0.220365
            72    0       5.557040      6.198370      0.787660    -0.723598    2.500483   -0.388676
            73    0       5.101200      4.791480      8.271880     0.156158    0.464349    0.322372
            74    0       8.853110      2.378830      4.275270    -0.530830   -0.856257    2.802286
            75    0       8.808320      0.915310      0.431870    -1.146898   -0.459542   -0.173289
            76    0       2.333360      4.667560      4.137870     0.318170   -0.770546    0.240429
            77    0      10.083150      8.459230      7.369650     1.038650    0.337063    1.294851
            78    0       4.036630      2.653600      8.127180    -0.432110    0.884400   -0.171786
            79    0       7.941510      3.959210      5.948450     0.991242   -1.816312    0.147240
            80    0       4.447570      4.084390      0.169350     1.236322    0.805465    0.056040
            81    0       2.744940      2.858140     10.014970    -2.858072    1.577894    0.286132
            82    0       9.685300      0.698070      8.565750     0.520695   -1.714604    0.214916
            83    0       9.166960      6.275930      6.395390     1.026428   -1.153884    0.766696
            84    0       7.278380      1.597030      5.844240     2.157256   -0.587684    1.902950
            85    0       9.985420      9.043310     10.110170    -0.962452    0.252267    0.678445
            86    0       8.791710      9.320120      2.017660    -0.256179   -1.115213   -0.773583
            87    0       8.429230      9.969760      7.085550    -2.516048    0.408502   -2.058551