 100 100   0   0
  0.1064800E+02  0.1021150E-08  0.1021150E-08  0.1021150E-08  0.5000000E-15
  1.000000000000000E-004
  CAR 
 unknown system                          
     21.53330496     -4.42258809  301     14.66089173      1.00000000
     -4.423  0.0000E+00  0.0000E+00  0.0000E+00  0.0000E+00
     -4.336  0.0000E+00  0.0000E+00  0.0000E+00  0.0000E+00
     -4.250  0.0000E+00  0.0000E+00  0.0000E+00  0.0000E+00
     -4.163  0.0000E+00  0.0000E+00  0.0000E+00  0.0000E+00
     -4.077  0.0000E+00  0.0000E+00  0.0000E+00  0.0000E+00
     -3.990  0.0000E+00  0.0000E+00  0.0000E+00  0.0000E+00
     -3.903  0.0000E+00  0.0000E+00  0.0000E+00  0.0000E+00
     -3.817  0.0000E+00  0.0000E+00  0.0000E+00  0.0000E+00
     -3.730  0.0000E+00  0.0000E+00  0.0000E+00  0.0000E+00
     -3.644  0.0000E+00  0.0000E+00  0.0000E+00  0.0000E+00
     -3.557  0.0000E+00  0.0000E+00  0.0000E+00  0.0000E+00
     -3.471  0.6397E-09  0.5944E-09  0.5535E-10  0.5142E-10
     -3.384  0.3593E-03  0.3427E-03  0.3109E-04  0.2965E-04
     -3.298  0.6897E+00  0.6746E+00  0.5970E-01  0.5839E-01
     -3.211  0.8709E+01  0.8690E+01  0.8132E+00  0.8102E+00
     -3.125  0.2154E+01  0.2188E+01  0.9996E+00  0.9996E+00
     -3.038  0.4894E-02  0.5094E-02  0.1000E+01  0.1000E+01
     -2.952  0.4211E-07  0.4500E-07  0.1000E+01  0.1000E+01
     -2.865  0.1283E-14  0.1283E-14  0.1000E+01  0.1000E+01
     -2.779  0.0000E+00  0.0000E+00  0.1000E+01  0.1000E+01
     -2.692  0.0000E+00  0.0000E+00  0.1000E+01  0.1000E+01
     -2.606  0.1604E-13  0.1476E-13  0.1000E+01  0.1000E+01
     -2.519  0.2849E-06  0.2707E-06  0.1000E+01  0.1000E+01
     -2.433  0.1526E-01  0.1482E-01  0.1001E+01  0.1001E+01
     -2.346  0.3312E+01  0.3277E+01  0.1288E+01  0.1285E+01
     -2.260  0.7889E+01  0.7918E+01  0.1970E+01  0.1970E+01
     -2.173  0.3536E+00  0.3601E+00  0.2001E+01  0.2001E+01
     -2.087  0.3060E+01  0.3007E+01  0.2266E+01  0.2261E+01
     -2.000  0.8090E+01  0.8131E+01  0.2966E+01  0.2965E+01
     -1.914  0.1174E+01  0.1169E+01  0.3067E+01  0.3066E+01
     -1.827  0.8868E+01  0.8849E+01  0.3835E+01  0.3831E+01
     -1.740  0.7188E+01  0.7174E+01  0.4456E+01  0.4452E+01
     -1.654  0.6339E+01  0.6381E+01  0.5005E+01  0.5004E+01
     -1.567  0.6934E+01  0.6887E+01  0.5605E+01  0.5600E+01
     -1.481  0.4531E+01  0.4585E+01  0.5997E+01  0.5997E+01
     -1.394  0.1634E+01  0.1610E+01  0.6138E+01  0.6136E+01
     -1.308  0.8954E+01  0.8961E+01  0.6913E+01  0.6911E+01
     -1.221  0.1005E+01  0.1024E+01  0.7000E+01  0.7000E+01
     -1.135  0.8256E-03  0.8596E-03  0.7000E+01  0.7000E+01
     -1.048  0.1168E+00  0.1133E+00  0.7010E+01  0.7010E+01
     -0.962  0.7964E+01  0.7879E+01  0.7699E+01  0.7691E+01
     -0.875  0.1409E+02  0.1415E+02  0.8918E+01  0.8916E+01
     -0.789  0.9504E+00  0.9759E+00  0.9000E+01  0.9000E+01
     -0.702  0.9320E+00  0.9098E+00  0.9081E+01  0.9079E+01
     -0.616  0.1615E+02  0.1609E+02  0.1048E+02  0.1047E+02
     -0.529  0.6010E+01  0.6092E+01  0.1100E+02  0.1100E+02
     -0.443  0.3574E+01  0.3517E+01  0.1131E+02  0.1130E+02
     -0.356  0.2138E+02  0.2135E+02  0.1316E+02  0.1315E+02
     -0.270  0.1432E+02  0.1435E+02  0.1440E+02  0.1439E+02
     -0.183  0.1109E+02  0.1110E+02  0.1536E+02  0.1535E+02
     -0.097  0.1349E+02  0.1349E+02  0.1652E+02  0.1652E+02
     -0.010  0.5742E+01  0.5789E+01  0.1702E+02  0.1702E+02
      0.076  0.7813E+01  0.7773E+01  0.1770E+02  0.1769E+02
      0.163  0.9160E+01  0.9164E+01  0.1849E+02  0.1848E+02
      0.249  0.5823E+01  0.5866E+01  0.1899E+02  0.1899E+02
      0.336  0.8912E-01  0.9150E-01  0.1900E+02  0.1900E+02
      0.423  0.6467E-05  0.6788E-05  0.1900E+02  0.1900E+02
      0.509  0.3564E-05  0.3333E-05  0.1900E+02  0.1900E+02
      0.596  0.6428E-01  0.6195E-01  0.1901E+02  0.1901E+02
      0.682  0.5293E+01  0.5236E+01  0.1946E+02  0.1946E+02
      0.769  0.6148E+01  0.6202E+01  0.2000E+02  0.1999E+02
      0.855  0.6554E+01  0.6477E+01  0.2056E+02  0.2056E+02
      0.942  0.1549E+02  0.1555E+02  0.2190E+02  0.2190E+02
      1.028  0.8001E+01  0.7965E+01  0.2260E+02  0.2259E+02
      1.115  0.1816E+02  0.1815E+02  0.2417E+02  0.2416E+02
      1.201  0.1127E+02  0.1132E+02  0.2514E+02  0.2514E+02
      1.288  0.9719E+01  0.9723E+01  0.2598E+02  0.2598E+02
      1.374  0.9475E+01  0.9470E+01  0.2680E+02  0.2680E+02
      1.461  0.2277E+01  0.2311E+01  0.2700E+02  0.2700E+02
      1.547  0.5630E-02  0.5845E-02  0.2700E+02  0.2700E+02
      1.634  0.5311E-07  0.5652E-07  0.2700E+02  0.2700E+02
      1.720  0.1283E-14  0.2566E-14  0.2700E+02  0.2700E+02
      1.807  0.3182E-09  0.2943E-09  0.2700E+02  0.2700E+02
      1.893  0.2411E-03  0.2291E-03  0.2700E+02  0.2700E+02
      1.980  0.6895E+00  0.6723E+00  0.2706E+02  0.2706E+02
      2.066  0.1496E+02  0.1489E+02  0.2835E+02  0.2835E+02
      2.153  0.7407E+01  0.7496E+01  0.2900E+02  0.2899E+02
      2.239  0.3861E+00  0.3796E+00  0.2903E+02  0.2903E+02
      2.326  0.1042E+02  0.1035E+02  0.2993E+02  0.2992E+02
      2.412  0.1222E+02  0.1228E+02  0.3099E+02  0.3099E+02
      2.499  0.8605E+01  0.8585E+01  0.3173E+02  0.3173E+02
      2.586  0.4569E+01  0.4590E+01  0.3213E+02  0.3213E+02
      2.672  0.8993E+01  0.8998E+01  0.3291E+02  0.3290E+02
      2.759  0.1090E+01  0.1108E+01  0.3300E+02  0.3300E+02
      2.845  0.1036E-02  0.1068E-02  0.3300E+02  0.3300E+02
      2.932  0.2853E+00  0.2776E+00  0.3302E+02  0.3302E+02
      3.018  0.7870E+01  0.7823E+01  0.3371E+02  0.3370E+02
      3.105  0.1114E+02  0.1114E+02  0.3467E+02  0.3466E+02
      3.191  0.1333E+02  0.1329E+02  0.3582E+02  0.3581E+02
      3.278  0.1366E+02  0.1373E+02  0.3700E+02  0.3700E+02
      3.364  0.1330E+02  0.1323E+02  0.3815E+02  0.3815E+02
      3.451  0.2218E+02  0.2218E+02  0.4007E+02  0.4007E+02
      3.537  0.2275E+02  0.2271E+02  0.4204E+02  0.4203E+02
      3.624  0.2807E+02  0.2811E+02  0.4447E+02  0.4446E+02
      3.710  0.9954E+01  0.9986E+01  0.4533E+02  0.4533E+02
      3.797  0.2353E+02  0.2349E+02  0.4737E+02  0.4736E+02
      3.883  0.1972E+02  0.1971E+02  0.4907E+02  0.4906E+02
      3.970  0.1856E+02  0.1859E+02  0.5068E+02  0.5067E+02
      4.056  0.2260E+02  0.2255E+02  0.5263E+02  0.5262E+02
      4.143  0.1732E+02  0.1739E+02  0.5413E+02  0.5413E+02
      4.229  0.9477E+01  0.9517E+01  0.5495E+02  0.5495E+02
      4.316  0.6244E+01  0.6209E+01  0.5549E+02  0.5549E+02
      4.402  0.5858E+01  0.5904E+01  0.5600E+02  0.5600E+02
      4.489  0.6057E+01  0.6007E+01  0.5652E+02  0.5652E+02
      4.575  0.1185E+02  0.1184E+02  0.5755E+02  0.5754E+02
      4.662  0.1668E+02  0.1664E+02  0.5899E+02  0.5898E+02
      4.748  0.2393E+02  0.2397E+02  0.6106E+02  0.6106E+02
      4.835  0.1580E+02  0.1578E+02  0.6243E+02  0.6242E+02
      4.922  0.1762E+02  0.1766E+02  0.6395E+02  0.6395E+02
      5.008  0.1334E+02  0.1332E+02  0.6511E+02  0.6510E+02
      5.095  0.1777E+02  0.1776E+02  0.6665E+02  0.6664E+02
      5.181  0.2656E+02  0.2650E+02  0.6894E+02  0.6893E+02
      5.268  0.1625E+02  0.1632E+02  0.7035E+02  0.7034E+02
      5.354  0.1977E+02  0.1977E+02  0.7206E+02  0.7206E+02
      5.441  0.1696E+02  0.1691E+02  0.7353E+02  0.7352E+02
      5.527  0.1729E+02  0.1736E+02  0.7502E+02  0.7502E+02
      5.614  0.1343E+02  0.1339E+02  0.7619E+02  0.7618E+02
      5.700  0.1838E+02  0.1840E+02  0.7778E+02  0.7777E+02
      5.787  0.1236E+02  0.1237E+02  0.7884E+02  0.7884E+02
      5.873  0.1212E+02  0.1209E+02  0.7989E+02  0.7989E+02
      5.960  0.1182E+02  0.1187E+02  0.8092E+02  0.8091E+02
      6.046  0.9658E+00  0.9863E+00  0.8100E+02  0.8100E+02
      6.133  0.7283E-03  0.7627E-03  0.8100E+02  0.8100E+02
      6.219  0.1940E-08  0.2087E-08  0.8100E+02  0.8100E+02
      6.306  0.0000E+00  0.0000E+00  0.8100E+02  0.8100E+02
      6.392  0.0000E+00  0.0000E+00  0.8100E+02  0.8100E+02
      6.479  0.0000E+00  0.0000E+00  0.8100E+02  0.8100E+02
      6.565  0.0000E+00  0.0000E+00  0.8100E+02  0.8100E+02
      6.652  0.0000E+00  0.0000E+00  0.8100E+02  0.8100E+02
      6.738  0.0000E+00  0.0000E+00  0.8100E+02  0.8100E+02
      6.825  0.0000E+00  0.0000E+00  0.8100E+02  0.8100E+02
      6.911  0.1331E-09  0.1226E-09  0.8100E+02  0.8100E+02
      6.998  0.1302E-03  0.1234E-03  0.8100E+02  0.8100E+02
      7.085  0.4234E+00  0.4124E+00  0.8104E+02  0.8104E+02
      7.171  0.8418E+01  0.8378E+01  0.8176E+02  0.8176E+02
      7.258  0.1061E+02  0.1061E+02  0.8268E+02  0.8268E+02
      7.344  0.1186E+02  0.1186E+02  0.8371E+02  0.8370E+02
      7.431  0.1569E+02  0.1565E+02  0.8507E+02  0.8506E+02
      7.517  0.1966E+02  0.1966E+02  0.8677E+02  0.8676E+02
      7.604  0.1971E+02  0.1974E+02  0.8847E+02  0.8847E+02
      7.690  0.1019E+02  0.1021E+02  0.8935E+02  0.8935E+02
      7.777  0.8817E+01  0.8832E+01  0.9012E+02  0.9011E+02
      7.863  0.1458E+02  0.1454E+02  0.9138E+02  0.9137E+02
      7.950  0.9956E+01  0.9982E+01  0.9224E+02  0.9224E+02
      8.036  0.8343E+01  0.8378E+01  0.9296E+02  0.9296E+02
      8.123  0.8822E+00  0.8825E+00  0.9304E+02  0.9304E+02
      8.209  0.1379E+02  0.1370E+02  0.9423E+02  0.9422E+02
      8.296  0.2242E+02  0.2242E+02  0.9617E+02  0.9616E+02
      8.382  0.1352E+02  0.1356E+02  0.9734E+02  0.9734E+02
      8.469  0.1007E+02  0.1008E+02  0.9821E+02  0.9821E+02
      8.555  0.1709E+02  0.1708E+02  0.9969E+02  0.9969E+02
      8.642  0.1434E+02  0.1430E+02  0.1009E+03  0.1009E+03
      8.728  0.2219E+02  0.2219E+02  0.1029E+03  0.1028E+03
      8.815  0.2656E+02  0.2656E+02  0.1051E+03  0.1051E+03
      8.901  0.2222E+02  0.2223E+02  0.1071E+03  0.1071E+03
      8.988  0.2023E+02  0.2022E+02  0.1088E+03  0.1088E+03
      9.074  0.2008E+02  0.2010E+02  0.1106E+03  0.1106E+03
      9.161  0.1766E+02  0.1764E+02  0.1121E+03  0.1121E+03
      9.248  0.1909E+02  0.1911E+02  0.1137E+03  0.1137E+03
      9.334  0.2176E+02  0.2171E+02  0.1156E+03  0.1156E+03
      9.421  0.2175E+02  0.2180E+02  0.1175E+03  0.1175E+03
      9.507  0.1842E+02  0.1840E+02  0.1191E+03  0.1191E+03
      9.594  0.2643E+02  0.2643E+02  0.1214E+03  0.1214E+03
      9.680  0.7980E+01  0.8048E+01  0.1221E+03  0.1221E+03
      9.767  0.1511E+02  0.1504E+02  0.1234E+03  0.1234E+03
      9.853  0.8257E+01  0.8328E+01  0.1241E+03  0.1241E+03
      9.940  0.1599E+02  0.1590E+02  0.1255E+03  0.1255E+03
     10.026  0.2472E+02  0.2475E+02  0.1276E+03  0.1276E+03
     10.113  0.1970E+02  0.1965E+02  0.1293E+03  0.1293E+03
     10.199  0.2015E+02  0.2021E+02  0.1311E+03  0.1311E+03
     10.286  0.2034E+02  0.2029E+02  0.1328E+03  0.1328E+03
     10.372  0.1688E+02  0.1693E+02  0.1343E+03  0.1343E+03
     10.459  0.1778E+02  0.1774E+02  0.1358E+03  0.1358E+03
     10.545  0.2008E+02  0.2010E+02  0.1376E+03  0.1376E+03
     10.632  0.1742E+02  0.1741E+02  0.1391E+03  0.1391E+03
     10.718  0.2310E+02  0.2308E+02  0.1411E+03  0.1411E+03
     10.805  0.1865E+02  0.1869E+02  0.1427E+03  0.1427E+03
     10.891  0.1258E+02  0.1257E+02  0.1438E+03  0.1438E+03
     10.978  0.1330E+02  0.1336E+02  0.1449E+03  0.1449E+03
     11.064  0.5263E+01  0.5226E+01  0.1454E+03  0.1454E+03
     11.151  0.1410E+02  0.1410E+02  0.1466E+03  0.1466E+03
     11.237  0.1152E+02  0.1150E+02  0.1476E+03  0.1476E+03
     11.324  0.2095E+02  0.2094E+02  0.1494E+03  0.1494E+03
     11.411  0.1915E+02  0.1914E+02  0.1511E+03  0.1511E+03
     11.497  0.1932E+02  0.1936E+02  0.1527E+03  0.1527E+03
     11.584  0.1929E+02  0.1923E+02  0.1544E+03  0.1544E+03
     11.670  0.2111E+02  0.2116E+02  0.1562E+03  0.1562E+03
     11.757  0.2417E+02  0.2415E+02  0.1583E+03  0.1583E+03
     11.843  0.2084E+02  0.2087E+02  0.1601E+03  0.1601E+03
     11.930  0.1421E+02  0.1423E+02  0.1614E+03  0.1613E+03
     12.016  0.2174E+02  0.2172E+02  0.1632E+03  0.1632E+03
     12.103  0.2446E+02  0.2445E+02  0.1654E+03  0.1653E+03
     12.189  0.1567E+02  0.1572E+02  0.1667E+03  0.1667E+03
     12.276  0.1176E+02  0.1172E+02  0.1677E+03  0.1677E+03
     12.362  0.1426E+02  0.1433E+02  0.1690E+03  0.1690E+03
     12.449  0.7602E+01  0.7576E+01  0.1696E+03  0.1696E+03
     12.535  0.4991E+01  0.5024E+01  0.1700E+03  0.1700E+03
     12.622  0.8578E+01  0.8559E+01  0.1708E+03  0.1708E+03
     12.708  0.3980E+01  0.3984E+01  0.1711E+03  0.1711E+03
     12.795  0.9120E+01  0.9123E+01  0.1719E+03  0.1719E+03
     12.881  0.8381E+01  0.8338E+01  0.1726E+03  0.1726E+03
     12.968  0.1478E+02  0.1478E+02  0.1739E+03  0.1739E+03
     13.054  0.1889E+02  0.1888E+02  0.1756E+03  0.1756E+03
     13.141  0.5679E+01  0.5737E+01  0.1761E+03  0.1761E+03
     13.227  0.1117E+02  0.1111E+02  0.1770E+03  0.1770E+03
     13.314  0.1095E+02  0.1100E+02  0.1780E+03  0.1780E+03
     13.400  0.7069E+01  0.7034E+01  0.1786E+03  0.1786E+03
     13.487  0.4854E+01  0.4904E+01  0.1790E+03  0.1790E+03
     13.573  0.3720E+01  0.3663E+01  0.1793E+03  0.1793E+03
     13.660  0.2476E+02  0.2472E+02  0.1815E+03  0.1815E+03
     13.747  0.1967E+02  0.1964E+02  0.1832E+03  0.1832E+03
     13.833  0.2082E+02  0.2090E+02  0.1850E+03  0.1850E+03
     13.920  0.1263E+02  0.1259E+02  0.1861E+03  0.1860E+03
     14.006  0.1344E+02  0.1347E+02  0.1872E+03  0.1872E+03
     14.093  0.1635E+02  0.1633E+02  0.1886E+03  0.1886E+03
     14.179  0.2495E+02  0.2489E+02  0.1908E+03  0.1908E+03
     14.266  0.1645E+02  0.1653E+02  0.1922E+03  0.1922E+03
     14.352  0.1904E+02  0.1904E+02  0.1939E+03  0.1939E+03
     14.439  0.1350E+02  0.1349E+02  0.1950E+03  0.1950E+03
     14.525  0.2187E+02  0.2183E+02  0.1969E+03  0.1969E+03
     14.612  0.2251E+02  0.2245E+02  0.1989E+03  0.1989E+03
     14.698  0.2637E+02  0.2624E+02  0.2012E+03  0.2011E+03
     14.785  0.2340E+02  0.2361E+02  0.2032E+03  0.2032E+03
     14.871  0.2344E+02  0.2341E+02  0.2052E+03  0.2052E+03
     14.958  0.2627E+02  0.2630E+02  0.2075E+03  0.2075E+03
     15.044  0.1211E+02  0.1214E+02  0.2085E+03  0.2085E+03
     15.131  0.1999E+02  0.1994E+02  0.2103E+03  0.2102E+03
     15.217  0.2073E+02  0.2076E+02  0.2120E+03  0.2120E+03
     15.304  0.2031E+02  0.2030E+02  0.2138E+03  0.2138E+03
     15.390  0.2351E+02  0.2348E+02  0.2158E+03  0.2158E+03
     15.477  0.2689E+02  0.2691E+02  0.2182E+03  0.2182E+03
     15.563  0.2481E+02  0.2478E+02  0.2203E+03  0.2203E+03
     15.650  0.3002E+02  0.3002E+02  0.2229E+03  0.2229E+03
     15.736  0.2329E+02  0.2334E+02  0.2249E+03  0.2249E+03
     15.823  0.2562E+02  0.2554E+02  0.2271E+03  0.2271E+03
     15.910  0.2342E+02  0.2350E+02  0.2292E+03  0.2292E+03
     15.996  0.2044E+02  0.2041E+02  0.2309E+03  0.2309E+03
     16.083  0.2104E+02  0.2107E+02  0.2328E+03  0.2327E+03
     16.169  0.1862E+02  0.1861E+02  0.2344E+03  0.2344E+03
     16.256  0.1828E+02  0.1827E+02  0.2359E+03  0.2359E+03
     16.342  0.1479E+02  0.1483E+02  0.2372E+03  0.2372E+03
     16.429  0.1821E+02  0.1822E+02  0.2388E+03  0.2388E+03
     16.515  0.1676E+02  0.1669E+02  0.2403E+03  0.2402E+03
     16.602  0.3092E+02  0.3091E+02  0.2429E+03  0.2429E+03
     16.688  0.2218E+02  0.2227E+02  0.2448E+03  0.2448E+03
     16.775  0.1665E+02  0.1661E+02  0.2463E+03  0.2463E+03
     16.861  0.1590E+02  0.1595E+02  0.2477E+03  0.2477E+03
     16.948  0.7667E+01  0.7667E+01  0.2483E+03  0.2483E+03
     17.034  0.1216E+02  0.1215E+02  0.2494E+03  0.2494E+03
     17.121  0.1040E+02  0.1041E+02  0.2503E+03  0.2503E+03
     17.207  0.7985E+01  0.8023E+01  0.2510E+03  0.2510E+03
     17.294  0.3259E+00  0.3337E+00  0.2510E+03  0.2510E+03
     17.380  0.7687E-04  0.8059E-04  0.2510E+03  0.2510E+03
     17.467  0.5956E-10  0.6399E-10  0.2510E+03  0.2510E+03
     17.553  0.4186E-06  0.3877E-06  0.2510E+03  0.2510E+03
     17.640  0.1910E-01  0.1827E-01  0.2510E+03  0.2510E+03
     17.726  0.3586E+01  0.3530E+01  0.2513E+03  0.2513E+03
     17.813  0.8655E+01  0.8682E+01  0.2521E+03  0.2521E+03
     17.899  0.1049E+02  0.1046E+02  0.2530E+03  0.2530E+03
     17.986  0.1865E+02  0.1862E+02  0.2546E+03  0.2546E+03
     18.073  0.1390E+02  0.1395E+02  0.2558E+03  0.2558E+03
     18.159  0.2532E+01  0.2571E+01  0.2560E+03  0.2560E+03
     18.246  0.6173E+01  0.6098E+01  0.2565E+03  0.2565E+03
     18.332  0.1594E+02  0.1598E+02  0.2579E+03  0.2579E+03
     18.419  0.9320E+01  0.9307E+01  0.2587E+03  0.2587E+03
     18.505  0.1236E+02  0.1232E+02  0.2598E+03  0.2598E+03
     18.592  0.1692E+02  0.1693E+02  0.2613E+03  0.2612E+03
     18.678  0.1701E+02  0.1700E+02  0.2627E+03  0.2627E+03
     18.765  0.2340E+02  0.2333E+02  0.2648E+03  0.2647E+03
     18.851  0.3404E+02  0.3403E+02  0.2677E+03  0.2677E+03
     18.938  0.3053E+02  0.3055E+02  0.2703E+03  0.2703E+03
     19.024  0.1898E+02  0.1910E+02  0.2720E+03  0.2720E+03
     19.111  0.1541E+02  0.1529E+02  0.2733E+03  0.2733E+03
     19.197  0.3011E+02  0.3016E+02  0.2759E+03  0.2759E+03
     19.284  0.2333E+02  0.2330E+02  0.2779E+03  0.2779E+03
     19.370  0.2415E+02  0.2415E+02  0.2800E+03  0.2800E+03
     19.457  0.3497E+02  0.3496E+02  0.2831E+03  0.2830E+03
     19.543  0.2981E+02  0.2982E+02  0.2856E+03  0.2856E+03
     19.630  0.2849E+02  0.2850E+02  0.2881E+03  0.2881E+03
     19.716  0.3109E+02  0.3106E+02  0.2908E+03  0.2908E+03
     19.803  0.2883E+02  0.2904E+02  0.2933E+03  0.2933E+03
     19.889  0.2298E+02  0.2392E+02  0.2953E+03  0.2954E+03
     19.976  0.2324E+02  0.2208E+02  0.2973E+03  0.2973E+03
     20.062  0.1606E+02  0.1779E+02  0.2987E+03  0.2988E+03
     20.149  0.1887E+02  0.1759E+02  0.3003E+03  0.3003E+03
     20.236  0.2087E+02  0.1912E+02  0.3021E+03  0.3020E+03
     20.322  0.1195E+02  0.1485E+02  0.3031E+03  0.3033E+03
     20.409  0.9233E+01  0.8307E+01  0.3039E+03  0.3040E+03
     20.495  0.6899E+00  0.1882E+00  0.3040E+03  0.3040E+03
     20.582  0.3593E-03  0.2591E-04  0.3040E+03  0.3040E+03
     20.668  0.6397E-09  0.1153E-10  0.3040E+03  0.3040E+03
     20.755  0.0000E+00  0.0000E+00  0.3040E+03  0.3040E+03
     20.841  0.0000E+00  0.0000E+00  0.3040E+03  0.3040E+03
     20.928  0.0000E+00  0.0000E+00  0.3040E+03  0.3040E+03
     21.014  0.0000E+00  0.0000E+00  0.3040E+03  0.3040E+03
     21.101  0.0000E+00  0.0000E+00  0.3040E+03  0.3040E+03
     21.187  0.0000E+00  0.0000E+00  0.3040E+03  0.3040E+03
     21.274  0.0000E+00  0.0000E+00  0.3040E+03  0.3040E+03
     21.360  0.0000E+00  0.0000E+00  0.3040E+03  0.3040E+03
     21.447  0.0000E+00  0.0000E+00  0.3040E+03  0.3040E+03
     21.533  0.0000E+00  0.0000E+00  0.3040E+03  0.3040E+03
