  100  100    1    2
  0.1064800E+02  0.1021149E-08  0.1021149E-08  0.1021149E-08  0.5000000E-15
  1.000000000000000E-004
  CAR 
 unknown system                          
    400      1    304
 
  0.0000000E+00  0.0000000E+00  0.0000000E+00  0.1000000E+01
    1       -3.242775     -3.242381   1.000000   1.000000
    2       -2.326335     -2.326014   1.000000   1.000000
    3       -2.064440     -2.063937   1.000000   1.000000
    4       -1.860628     -1.860217   1.000000   1.000000
    5       -1.736643     -1.736256   1.000000   1.000000
    6       -1.576840     -1.576403   1.000000   1.000000
    7       -1.355932     -1.355568   1.000000   1.000000
    8       -0.965862     -0.965472   1.000000   1.000000
    9       -0.925672     -0.925178   1.000000   1.000000
   10       -0.646857     -0.646453   1.000000   1.000000
   11       -0.631036     -0.630631   1.000000   1.000000
   12       -0.413437     -0.413074   1.000000   1.000000
   13       -0.397674     -0.397256   1.000000   1.000000
   14       -0.340226     -0.339831   1.000000   1.000000
   15       -0.262247     -0.261862   1.000000   1.000000
   16       -0.170394     -0.169995   1.000000   1.000000
   17       -0.100302     -0.099912   1.000000   1.000000
   18        0.058977      0.059384   1.000000   1.000000
   19        0.163831      0.164170   1.000000   1.000000
   20        0.685310      0.685767   1.000000   1.000000
   21        0.860947      0.861375   1.000000   1.000000
   22        0.895265      0.895666   1.000000   1.000000
   23        1.025365      1.025758   1.000000   1.000000
   24        1.082694      1.083047   1.000000   1.000000
   25        1.127842      1.128197   1.000000   1.000000
   26        1.236168      1.236522   1.000000   1.000000
   27        1.344150      1.344522   1.000000   1.000000
   28        2.038712      2.039123   1.000000   1.000000
   29        2.060047      2.060449   1.000000   1.000000
   30        2.307110      2.307507   1.000000   1.000000
   31        2.352382      2.352789   1.000000   1.000000
   32        2.477098      2.477494   1.000000   1.000000
   33        2.625561      2.625876   1.000000   1.000000
   34        3.001068      3.001483   1.000000   1.000000
   35        3.090289      3.090700   1.000000   1.000000
   36        3.183840      3.184240   1.000000   1.000000
   37        3.215845      3.216270   1.000000   1.000000
   38        3.337154      3.337507   1.000000   1.000000
   39        3.380314      3.380683   1.000000   1.000000
   40        3.421823      3.422189   1.000000   1.000000
   41        3.471358      3.471725   1.000000   1.000000
   42        3.521086      3.521476   1.000000   1.000000
   43        3.556620      3.557034   1.000000   1.000000
   44        3.585057      3.585481   1.000000   1.000000
   45        3.611363      3.611773   1.000000   1.000000
   46        3.733452      3.733827   1.000000   1.000000
   47        3.762915      3.763280   1.000000   1.000000
   48        3.792314      3.792706   1.000000   1.000000
   49        3.870317      3.870684   1.000000   1.000000
   50        3.890419      3.890831   1.000000   1.000000
   51        3.959892      3.960275   1.000000   1.000000
   52        4.023291      4.023683   1.000000   1.000000
   53        4.043836      4.044236   1.000000   1.000000
   54        4.089484      4.089932   1.000000   1.000000
   55        4.172365      4.172764   1.000000   1.000000
   56        4.316453      4.316853   1.000000   1.000000
   57        4.487580      4.487976   1.000000   1.000000
   58        4.572283      4.572735   1.000000   1.000000
   59        4.648464      4.648821   1.000000   1.000000
   60        4.686458      4.686820   1.000000   1.000000
   61        4.706331      4.706707   1.000000   1.000000
   62        4.775866      4.776188   1.000000   1.000000
   63        4.848783      4.849176   1.000000   1.000000
   64        4.874980      4.875455   1.000000   1.000000
   65        4.974386      4.974785   1.000000   1.000000
   66        5.030007      5.030356   1.000000   1.000000
   67        5.087263      5.087633   1.000000   1.000000
   68        5.144535      5.144905   1.000000   1.000000
   69        5.175349      5.175778   1.000000   1.000000
   70        5.178080      5.178503   1.000000   1.000000
   71        5.297166      5.297573   1.000000   1.000000
   72        5.302895      5.303280   1.000000   1.000000
   73        5.385799      5.386166   1.000000   1.000000
   74        5.457348      5.457784   1.000000   1.000000
   75        5.462320      5.462720   1.000000   1.000000
   76        5.576818      5.577237   1.000000   1.000000
   77        5.632533      5.632878   1.000000   1.000000
   78        5.676748      5.677119   1.000000   1.000000
   79        5.756016      5.756356   1.000000   1.000000
   80        5.849452      5.849831   1.000000   1.000000
   81        5.910731      5.911132   1.000000   1.000000
   82        7.147849      7.148273   1.000000   1.000000
   83        7.243040      7.243406   1.000000   1.000000
   84        7.327320      7.327684   1.000000   1.000000
   85        7.412672      7.413052   1.000000   1.000000
   86        7.443484      7.443866   1.000000   1.000000
   87        7.506317      7.506724   1.000000   1.000000
   88        7.552655      7.553077   1.000000   1.000000
   89        7.599378      7.599756   1.000000   1.000000
   90        7.702907      7.703282   1.000000   1.000000
   91        7.816554      7.816917   1.000000   1.000000
   92        7.865787      7.866182   1.000000   1.000000
   93        7.973739      7.974150   1.000000   1.000000
   94        8.188087      8.188483   1.000000   1.000000
   95        8.212733      8.213087   1.000000   1.000000
   96        8.271038      8.271439   1.000000   1.000000
   97        8.302893      8.303270   1.000000   1.000000
   98        8.395667      8.396102   1.000000   1.000000
   99        8.498818      8.499173   1.000000   1.000000
  100        8.534043      8.534428   1.000000   1.000000
  101        8.629984      8.630415   1.000000   1.000000
  102        8.662033      8.662424   1.000000   1.000000
  103        8.717518      8.717920   1.000000   1.000000
  104        8.760434      8.760777   1.000000   1.000000
  105        8.778103      8.778462   1.000000   1.000000
  106        8.833226      8.833671   1.000000   1.000000
  107        8.869983      8.870353   1.000000   1.000000
  108        8.923866      8.924289   1.000000   1.000000
  109        8.972353      8.972802   1.000000   1.000000
  110        9.021389      9.021782   1.000000   1.000000
  111        9.064717      9.065189   1.000000   1.000000
  112        9.153169      9.153572   1.000000   1.000000
  113        9.162345      9.162684   1.000000   1.000000
  114        9.234834      9.235205   1.000000   1.000000
  115        9.292456      9.292870   1.000000   1.000000
  116        9.332431      9.332839   1.000000   1.000000
  117        9.361573      9.361947   1.000000   1.000000
  118        9.420345      9.420697   1.000000   1.000000
  119        9.477325      9.477685   1.000000   1.000000
  120        9.532780      9.533188   1.000000   1.000000
  121        9.564080      9.564458   1.000000   1.000000
  122        9.581957      9.582334   1.000000   1.000000
  123        9.733014      9.733510   1.000000   1.000000
  124        9.761958      9.762390   1.000000   1.000000
  125        9.899278      9.899683   1.000000   1.000000
  126        9.943238      9.943634   1.000000   1.000000
  127        9.981290      9.981691   1.000000   1.000000
  128       10.007995     10.008352   1.000000   1.000000
  129       10.094545     10.094904   1.000000   1.000000
  130       10.114671     10.115060   1.000000   1.000000
  131       10.149457     10.149874   1.000000   1.000000
  132       10.236758     10.237181   1.000000   1.000000
  133       10.287627     10.287997   1.000000   1.000000
  134       10.292161     10.292515   1.000000   1.000000
  135       10.391810     10.392269   1.000000   1.000000
  136       10.449163     10.449559   1.000000   1.000000
  137       10.484286     10.484686   1.000000   1.000000
  138       10.540867     10.541259   1.000000   1.000000
  139       10.601509     10.601882   1.000000   1.000000
  140       10.662789     10.663182   1.000000   1.000000
  141       10.682119     10.682573   1.000000   1.000000
  142       10.742175     10.742613   1.000000   1.000000
  143       10.786131     10.786566   1.000000   1.000000
  144       10.880421     10.880802   1.000000   1.000000
  145       10.928296     10.928688   1.000000   1.000000
  146       11.077098     11.077537   1.000000   1.000000
  147       11.141431     11.141852   1.000000   1.000000
  148       11.238441     11.238884   1.000000   1.000000
  149       11.283235     11.283630   1.000000   1.000000
  150       11.323270     11.323670   1.000000   1.000000
  151       11.392879     11.393269   1.000000   1.000000
  152       11.424346     11.424786   1.000000   1.000000
  153       11.477428     11.477820   1.000000   1.000000
  154       11.560180     11.560610   1.000000   1.000000
  155       11.585642     11.586065   1.000000   1.000000
  156       11.615902     11.616249   1.000000   1.000000
  157       11.697417     11.697865   1.000000   1.000000
  158       11.720901     11.721348   1.000000   1.000000
  159       11.760396     11.760740   1.000000   1.000000
  160       11.810266     11.810671   1.000000   1.000000
  161       11.860800     11.861181   1.000000   1.000000
  162       11.952241     11.952554   1.000000   1.000000
  163       11.971831     11.972218   1.000000   1.000000
  164       12.034090     12.034422   1.000000   1.000000
  165       12.071293     12.071662   1.000000   1.000000
  166       12.099447     12.099818   1.000000   1.000000
  167       12.170278     12.170677   1.000000   1.000000
  168       12.274033     12.274409   1.000000   1.000000
  169       12.304680     12.305061   1.000000   1.000000
  170       12.438388     12.438751   1.000000   1.000000
  171       12.593397     12.593729   1.000000   1.000000
  172       12.747445     12.747841   1.000000   1.000000
  173       12.873857     12.874268   1.000000   1.000000
  174       12.935183     12.935561   1.000000   1.000000
  175       13.017975     13.018372   1.000000   1.000000
  176       13.034546     13.034929   1.000000   1.000000
  177       13.198085     13.198491   1.000000   1.000000
  178       13.254555     13.254940   1.000000   1.000000
  179       13.393621     13.394025   1.000000   1.000000
  180       13.599614     13.599994   1.000000   1.000000
  181       13.625969     13.626331   1.000000   1.000000
  182       13.646450     13.646824   1.000000   1.000000
  183       13.732356     13.732707   1.000000   1.000000
  184       13.763145     13.763471   1.000000   1.000000
  185       13.777648     13.778025   1.000000   1.000000
  186       13.892438     13.892815   1.000000   1.000000
  187       13.940556     13.940908   1.000000   1.000000
  188       14.031473     14.031810   1.000000   1.000000
  189       14.083156     14.083520   1.000000   1.000000
  190       14.152577     14.152940   1.000000   1.000000
  191       14.163403     14.163806   1.000000   1.000000
  192       14.192833     14.193245   1.000000   1.000000
  193       14.303976     14.304359   1.000000   1.000000
  194       14.311322     14.311680   1.000000   1.000000
  195       14.403600     14.403951   1.000000   1.000000
  196       14.473985     14.474353   1.000000   1.000000
  197       14.504347     14.504681   0.999995   0.999995
  198       14.550590     14.550937   0.999095   0.999064
  199       14.588104     14.588511   0.980241   0.979683
  200       14.651240     14.652451   0.607575   0.594341
  201       14.678678     14.679890   0.307461   0.295512
  202       14.704193     14.704724   0.110337   0.107533
  203       14.743544     14.743921   0.009700   0.009427
  204       14.805551     14.805946   0.000021   0.000020
  205       14.852940     14.853308   0.000000   0.000000
  206       14.874595     14.874950   0.000000   0.000000
  207       14.930277     14.930653   0.000000   0.000000
  208       14.939246     14.939652   0.000000   0.000000
  209       15.046849     15.047187   0.000000   0.000000
  210       15.101624     15.101981   0.000000   0.000000
  211       15.142119     15.142504   0.000000   0.000000
  212       15.177861     15.178232   0.000000   0.000000
  213       15.252760     15.253173   0.000000   0.000000
  214       15.279984     15.280347   0.000000   0.000000
  215       15.347927     15.348306   0.000000   0.000000
  216       15.375502     15.375839   0.000000   0.000000
  217       15.421079     15.421495   0.000000   0.000000
  218       15.436287     15.436624   0.000000   0.000000
  219       15.498872     15.499247   0.000000   0.000000
  220       15.526443     15.526852   0.000000   0.000000
  221       15.580293     15.580676   0.000000   0.000000
  222       15.600633     15.601034   0.000000   0.000000
  223       15.630166     15.630556   0.000000   0.000000
  224       15.676395     15.676808   0.000000   0.000000
  225       15.700615     15.700999   0.000000   0.000000
  226       15.784603     15.784990   0.000000   0.000000
  227       15.800414     15.800821   0.000000   0.000000
  228       15.832021     15.832411   0.000000   0.000000
  229       15.861029     15.861424   0.000000   0.000000
  230       15.934672     15.935044   0.000000   0.000000
  231       15.976699     15.977055   0.000000   0.000000
  232       16.020940     16.021346   0.000000   0.000000
  233       16.063389     16.063776   0.000000   0.000000
  234       16.130937     16.131282   0.000000   0.000000
  235       16.170694     16.171077   0.000000   0.000000
  236       16.237702     16.238081   0.000000   0.000000
  237       16.278042     16.278481   0.000000   0.000000
  238       16.371873     16.372239   0.000000   0.000000
  239       16.395654     16.395999   0.000000   0.000000
  240       16.495657     16.496059   0.000000   0.000000
  241       16.520587     16.520990   0.000000   0.000000
  242       16.564961     16.565335   0.000000   0.000000
  243       16.584485     16.584850   0.000000   0.000000
  244       16.616807     16.617204   0.000000   0.000000
  245       16.653641     16.654032   0.000000   0.000000
  246       16.758576     16.758969   0.000000   0.000000
  247       16.766521     16.766865   0.000000   0.000000
  248       16.845770     16.846124   0.000000   0.000000
  249       16.963582     16.963943   0.000000   0.000000
  250       17.043010     17.043432   0.000000   0.000000
  251       17.139867     17.140233   0.000000   0.000000
  252       17.743791     17.744278   0.000000   0.000000
  253       17.861283     17.861668   0.000000   0.000000
  254       17.947885     17.948281   0.000000   0.000000
  255       17.970102     17.970502   0.000000   0.000000
  256       18.044442     18.044854   0.000000   0.000000
  257       18.253154     18.253566   0.000000   0.000000
  258       18.286652     18.287026   0.000000   0.000000
  259       18.399359     18.399726   0.000000   0.000000
  260       18.494851     18.495234   0.000000   0.000000
  261       18.537811     18.538198   0.000000   0.000000
  262       18.609675     18.610139   0.000000   0.000000
  263       18.665640     18.666003   0.000000   0.000000
  264       18.722099     18.722487   0.000000   0.000000
  265       18.763898     18.764336   0.000000   0.000000
  266       18.787723     18.788105   0.000000   0.000000
  267       18.811545     18.812034   0.000000   0.000000
  268       18.848840     18.849279   0.000000   0.000000
  269       18.868357     18.868794   0.000000   0.000000
  270       18.920107     18.920475   0.000000   0.000000
  271       18.944165     18.944607   0.000000   0.000000
  272       18.961430     18.961787   0.000000   0.000000
  273       19.092174     19.092557   0.000000   0.000000
  274       19.117904     19.118350   0.000000   0.000000
  275       19.153254     19.153632   0.000000   0.000000
  276       19.160791     19.161195   0.000000   0.000000
  277       19.230456     19.230831   0.000000   0.000000
  278       19.276411     19.276856   0.000000   0.000000
  279       19.292132     19.292532   0.000000   0.000000
  280       19.364179     19.364558   0.000000   0.000000
  281       19.384747     19.385172   0.000000   0.000000
  282       19.418665     19.418987   0.000000   0.000000
  283       19.429916     19.430276   0.000000   0.000000
  284       19.471335     19.471726   0.000000   0.000000
  285       19.504324     19.504731   0.000000   0.000000
  286       19.539588     19.539935   0.000000   0.000000
  287       19.571018     19.571419   0.000000   0.000000
  288       19.611567     19.611952   0.000000   0.000000
  289       19.649323     19.649648   0.000000   0.000000
  290       19.666314     19.666657   0.000000   0.000000
  291       19.715754     19.716066   0.000000   0.000000
  292       19.729563     19.730204   0.000000   0.000000
  293       19.789618     19.789783   0.000000   0.000000
  294       19.794406     19.795061   0.000000   0.000000
  295       19.857171     19.853439   0.000000   0.000000
  296       19.905287     19.902054   0.000000   0.000000
  297       19.930086     19.925734   0.000000   0.000000
  298       19.986537     19.990808   0.000000   0.000000
  299       20.050509     20.045842   0.000000   0.000000
  300       20.120939     20.100152   0.000000   0.000000
  301       20.157953     20.168562   0.000000   0.000000
  302       20.190983     20.190209   0.000000   0.000000
  303       20.262154     20.279494   0.000000   0.000000
  304       20.353492     20.332871   0.000000   0.000000
