       N       E                     dE             d eps       ncg     rms          rms(c)
RMM:   1     0.140276712365E+04    0.14028E+04   -0.74972E+04   608   0.515E+02
RMM:   2     0.201387179177E+02   -0.13826E+04   -0.13314E+04   608   0.121E+02
RMM:   3    -0.268295296825E+03   -0.28843E+03   -0.28307E+03   608   0.500E+01
RMM:   4    -0.349174674510E+03   -0.80879E+02   -0.67838E+02   608   0.286E+01
RMM:   5    -0.375489186589E+03   -0.26315E+02   -0.21450E+02   608   0.131E+01
RMM:   6    -0.385191423552E+03   -0.97022E+01   -0.74593E+01   608   0.776E+00
RMM:   7    -0.388736271593E+03   -0.35448E+01   -0.29179E+01   608   0.394E+00
RMM:   8    -0.390157059375E+03   -0.14208E+01   -0.11672E+01   608   0.242E+00
RMM:   9    -0.390972303617E+03   -0.81524E+00   -0.75538E+00  1513   0.129E+00
RMM:  10    -0.391062299422E+03   -0.89996E-01   -0.47514E-01  1487   0.248E-01
RMM:  11    -0.391064198293E+03   -0.18989E-02   -0.13106E-02  1378   0.438E-02
RMM:  12    -0.391064214111E+03   -0.15818E-04   -0.15376E-04  1063   0.616E-03    0.640E+01
RMM:  13    -0.394488430685E+03   -0.34242E+01   -0.18800E+01  1336   0.413E+00    0.387E+01
RMM:  14    -0.401532331501E+03   -0.70439E+01   -0.70022E+00  1327   0.289E+00    0.182E+01
RMM:  15    -0.402253601809E+03   -0.72127E+00   -0.17320E+00  1382   0.131E+00    0.370E+00
RMM:  16    -0.402368734433E+03   -0.11513E+00   -0.44618E-01  1403   0.702E-01    0.244E+00
RMM:  17    -0.402454213325E+03   -0.85479E-01   -0.12758E-01  1428   0.368E-01    0.138E+00
RMM:  18    -0.402497712556E+03   -0.43499E-01   -0.35105E-02  1407   0.206E-01    0.661E-01
RMM:  19    -0.402506769955E+03   -0.90574E-02   -0.95675E-03  1443   0.107E-01    0.279E-01
RMM:  20    -0.402508933985E+03   -0.21640E-02   -0.30457E-03  1419   0.644E-02    0.148E-01
RMM:  21    -0.402509836997E+03   -0.90301E-03   -0.13440E-03  1412   0.427E-02    0.975E-02
RMM:  22    -0.402510349726E+03   -0.51273E-03   -0.76152E-04  1407   0.329E-02    0.663E-02
RMM:  23    -0.402510727236E+03   -0.37751E-03   -0.77339E-04  1380   0.340E-02    0.444E-02
RMM:  24    -0.402510957429E+03   -0.23019E-03   -0.69609E-04  1382   0.323E-02    0.270E-02
RMM:  25    -0.402511056736E+03   -0.99308E-04   -0.37974E-04  1397   0.235E-02    0.160E-02
RMM:  26    -0.402511099566E+03   -0.42829E-04   -0.21186E-04  1397   0.175E-02    0.893E-03
RMM:  27    -0.402511114975E+03   -0.15409E-04   -0.97648E-05  1418   0.118E-02    0.449E-03
RMM:  28    -0.402511119292E+03   -0.43169E-05   -0.31984E-05  1095   0.673E-03
   1 F= -.40251112E+03 E0= -.40247582E+03  d E =-.706075E-01  mag=     0.0138
