 vasp.5.4.4.18Apr17-6-g9f103f2a35 (build Sep 16 2020 16:20:45) complex          
  
 executed on             LinuxIFC date 2021.08.09  15:40:31
 running on   16 total cores
 distrk:  each k-point on   16 cores,    1 groups
 distr:  one band on NCORES_PER_BAND=   1 cores,   16 groups


--------------------------------------------------------------------------------------------------------


 INCAR:
 POTCAR:    PAW_PBE Si 05Jan2001                  

 ----------------------------------------------------------------------------- 
|                                                                             |
|           W    W    AA    RRRRR   N    N  II  N    N   GGGG   !!!           |
|           W    W   A  A   R    R  NN   N  II  NN   N  G    G  !!!           |
|           W    W  A    A  R    R  N N  N  II  N N  N  G       !!!           |
|           W WW W  AAAAAA  RRRRR   N  N N  II  N  N N  G  GGG   !            |
|           WW  WW  A    A  R   R   N   NN  II  N   NN  G    G                |
|           W    W  A    A  R    R  N    N  II  N    N   GGGG   !!!           |
|                                                                             |
|      For optimal performance we recommend to set                            |
|        NCORE= 4 - approx SQRT( number of cores)                             |
|      NCORE specifies how many cores store one orbital (NPAR=cpu/NCORE).     |
|      This setting can  greatly improve the performance of VASP for DFT.     |
|      The default,   NCORE=1            might be grossly inefficient         |
|      on modern multi-core architectures or massively parallel machines.     |
|      Do your own testing !!!!                                               |
|      Unfortunately you need to use the default for GW and RPA calculations. |
|      (for HF NCORE is supported but not extensively tested yet)             |
|                                                                             |
 ----------------------------------------------------------------------------- 

 POTCAR:    PAW_PBE Si 05Jan2001                  
   SHA256 =  79d9987ad8750f624c4d6acb2a16d13abf6a777132adc04dc6c8399be72b42bb Si
   COPYR  = (c) Copyright 05Jan2001 Georg Kresse                                
   COPYR  = This file is part of the software VASP. Any use, copying, and all ot
   COPYR  = If you do not have a valid VASP license, you may not use, copy or di
   VRHFIN =Si: s2p2                                                             
   LEXCH  = PE                                                                  
   EATOM  =   103.0669 eV,    7.5752 Ry                                         
                                                                                
   TITEL  = PAW_PBE Si 05Jan2001                                                
   LULTRA =        F    use ultrasoft PP ?                                      
   IUNSCR =        1    unscreen: 0-lin 1-nonlin 2-no                           
   RPACOR =    1.500    partial core radius                                     
   POMASS =   28.085; ZVAL   =    4.000    mass and valenz                      
   RCORE  =    1.900    outmost cutoff radius                                   
   RWIGS  =    2.480; RWIGS  =    1.312    wigner-seitz radius (au A)           
   ENMAX  =  245.345; ENMIN  =  184.009 eV                                      
   ICORE  =        2    local potential                                         
   LCOR   =        T    correct aug charges                                     
   LPAW   =        T    paw PP                                                  
   EAUG   =  322.069                                                            
   DEXC   =    0.000                                                            
   RMAX   =    1.950    core radius for proj-oper                               
   RAUG   =    1.300    factor for augmentation sphere                          
   RDEP   =    1.993    radius for radial grids                                 
   RDEPT  =    1.837    core radius for aug-charge                              
                                                                                
   Atomic configuration                                                         
    6 entries                                                                   
     n  l   j            E        occ.                                          
     1  0  0.50     -1785.8828   2.0000                                         
     2  0  0.50      -139.4969   2.0000                                         
     2  1  1.50       -95.5546   6.0000                                         
     3  0  0.50       -10.8127   2.0000                                         
     3  1  0.50        -4.0811   2.0000                                         
     3  2  1.50        -4.0817   0.0000                                         
   Description                                                                  
     l       E           TYP  RCUT    TYP  RCUT                                 
     0    -10.8127223     23  1.900                                             
     0     -7.6451159     23  1.900                                             
     1     -4.0811372     23  1.900                                             
     1      2.4879257     23  1.900                                             
     2     -4.0817478      7  1.900                                             
  local pseudopotential read in
  partial core-charges read in
  partial kinetic energy density read in
  atomic valenz-charges read in
  non local Contribution for L=           0  read in
    real space projection operators read in
  non local Contribution for L=           0  read in
    real space projection operators read in
  non local Contribution for L=           1  read in
    real space projection operators read in
  non local Contribution for L=           1  read in
    real space projection operators read in
    PAW grid and wavefunctions read in
 
   number of l-projection  operators is LMAX  =           4
   number of lm-projection operators is LMMAX =           8
 
 Optimization of the real space projectors (new method)

 maximal supplied QI-value         = 19.84
 optimisation between [QCUT,QGAM] = [  7.94, 15.87] = [ 17.64, 70.56] Ry 
 Optimized for a Real-space Cutoff    1.57 Angstroem

   l    n(q)    QCUT    max X(q) W(low)/X(q) W(high)/X(q)  e(spline) 
   0      7     7.937   159.560    0.16E-03    0.38E-03    0.13E-06
   0      7     7.937   115.863    0.15E-03    0.37E-03    0.13E-06
   1      7     7.937    88.339    0.42E-03    0.67E-03    0.13E-06
   1      7     7.937    48.592    0.41E-03    0.65E-03    0.13E-06
  PAW_PBE Si 05Jan2001                  :
 energy of atom  1       EATOM= -103.0669
 kinetic energy error for atom=    0.0056 (will be added to EATOM!!)
 
 
 POSCAR: Si                                      
  positions in cartesian coordinates
  No initial velocities read in
 exchange correlation table for  LEXCH =        8
   RHO(1)=    0.500       N(1)  =     2000
   RHO(2)=  100.500       N(2)  =     4000
 


--------------------------------------------------------------------------------------------------------


 ion  position               nearest neighbor table
   1  0.992  0.724  0.016-  59 2.05  66 2.17  16 2.19  52 2.29  44 2.33  64 2.34  79 2.50  77 2.51
                            39 2.54  80 2.54  54 2.56  61 2.71
   2  0.572  0.734  0.507-  74 2.24  91 2.27  58 2.35  92 2.35   6 2.38  88 2.47  55 2.59   7 2.65
                            84 2.66  20 2.68  43 2.77  50 2.96  33 3.12
   3  0.035  0.004  0.715-  80 2.09  22 2.11  83 2.13  53 2.24   4 2.30  56 2.31  11 2.32  39 2.39
                            32 2.43   5 3.12
   4  0.979  0.173  0.853-  37 2.10  32 2.17   3 2.30  41 2.33  83 2.42  85 2.44  39 2.50  99 2.65
                            40 2.73  68 2.78  18 2.82  21 3.08  96 3.12  11 3.14
   5  0.327  0.012  0.630-  46 2.19  84 2.23  55 2.28  71 2.34  83 2.43  53 2.45  22 2.51   6 2.52
                            28 2.52  76 2.53  93 2.79  62 2.96   3 3.12
   6  0.437  0.798  0.686-  97 2.11  84 2.11  23 2.22  92 2.28   2 2.38  50 2.51   5 2.52  55 2.60
                            86 2.66  46 2.71  53 2.72  42 2.88   7 2.91
   7  0.353  0.595  0.505-  26 2.04  42 2.20  67 2.22  91 2.30  87 2.37  84 2.40  97 2.56   2 2.65
                            92 2.70  36 2.71  73 2.90   6 2.91  63 3.01
   8  0.447  0.469  0.869-  81 2.27  45 2.34  69 2.35  97 2.35  92 2.45  89 2.47  67 2.51  49 2.63
                            75 2.66  51 2.69  47 2.82 100 3.04
   9  0.684  0.747  0.195-  65 2.19  59 2.21  43 2.29  58 2.36  75 2.38  88 2.50  25 2.55  64 2.61
                            44 2.67  91 2.82  33 2.91  94 3.08
  10  0.446  0.044  0.013-  46 2.08  24 2.30  60 2.33  29 2.37 100 2.38  89 2.40  48 2.41  12 2.43
                            65 2.55  23 2.70  25 2.81
  11  0.998  0.153  0.548-  68 2.19  82 2.28  28 2.28  40 2.31   3 2.32  15 2.36  70 2.53  17 2.57
                            56 2.90  22 2.91  31 3.04  32 3.10   4 3.14
  12  0.346  0.887  0.162-  77 2.25  78 2.26  93 2.36  10 2.43  88 2.54  60 2.58  65 2.59  66 2.69
                            29 2.71  91 2.78  23 2.84  73 2.85
  13  0.043  0.417  0.252-  63 2.29  15 2.42  82 2.43  36 2.52  52 2.57  14 2.59  85 2.63  94 2.68
                            16 2.80  44 2.82  27 2.89  35 2.89  87 2.95
  14  0.233  0.394  0.086-  85 2.07  81 2.18  49 2.32  51 2.37 100 2.38  87 2.57  13 2.59  18 2.60
                            52 2.66  90 2.71  27 2.72  16 2.98
  15  0.977  0.200  0.323-  17 2.12  82 2.25  31 2.27  38 2.35  11 2.36  96 2.36  13 2.42  27 2.44
                            35 2.63  28 2.86  63 2.95  85 3.06
  16  0.979  0.510  0.002-   1 2.19  18 2.35  41 2.37  59 2.47  54 2.52  99 2.54  94 2.54  52 2.55
                            85 2.77  13 2.80  44 2.86  79 2.91  81 2.96  14 2.98
  17  0.089  0.027  0.349-  15 2.12  95 2.22  27 2.24  93 2.27  28 2.27  96 2.34  31 2.38  77 2.55
                            22 2.56  11 2.57  73 2.78
  18  0.124  0.407  0.856-  49 2.06  81 2.31  98 2.34  68 2.35  16 2.35  85 2.50  99 2.55  14 2.60
                            79 2.76   4 2.82  67 2.85
  19  0.620  0.313  0.253-  34 2.12  35 2.16  47 2.31  24 2.35  90 2.40  38 2.44  94 2.58  43 2.60
                            57 2.61 100 2.66  60 2.70  51 2.72  26 3.08
  20  0.666  0.489  0.508-  30 2.18  35 2.27  57 2.32  43 2.32  33 2.41  26 2.45  45 2.54  92 2.54
                             2 2.68  74 2.98
  21  0.701  0.293  0.854-  69 2.13  47 2.17  41 2.20  89 2.21  99 2.25  45 2.42  40 2.44  48 2.61
                            24 2.65  32 2.70  62 2.70  37 2.97   4 3.08
  22  0.121  0.896  0.561-   3 2.11  42 2.24  84 2.29  53 2.40  72 2.49  73 2.49   5 2.51  56 2.55
                            17 2.56  95 2.70  11 2.91  80 2.93  28 3.02  93 3.06
  23  0.392  0.811  0.898-  66 2.21  65 2.21   6 2.22  78 2.32  53 2.39  97 2.43  46 2.50  86 2.57
                            10 2.70  12 2.84  81 2.96
  24  0.621  0.173  0.070-  25 2.09  38 2.15  47 2.17 100 2.20  48 2.26  10 2.30  19 2.35  60 2.36
                            89 2.40  21 2.65  37 2.67  34 2.87  41 2.94
  25  0.687  0.989  0.131-  24 2.09  65 2.36  64 2.36  37 2.42  38 2.46  48 2.54   9 2.55  60 2.56
                            61 2.65  31 2.65  34 2.68  88 2.74  10 2.81
  26  0.440  0.419  0.470-   7 2.04  90 2.25  67 2.32  20 2.45  87 2.52  57 2.52  76 2.54  45 2.55
                            63 2.58  43 2.87  19 3.08  92 3.09
  27  0.205  0.185  0.249-  17 2.24  90 2.30  28 2.33  29 2.38  93 2.38  63 2.38  15 2.44  85 2.52
                            96 2.59  14 2.72  13 2.89 100 2.93  60 3.00
  28  0.209  0.165  0.476-  63 2.17  17 2.27  93 2.28  11 2.28  27 2.33  76 2.33  68 2.45   5 2.52
                            71 2.55  15 2.86  22 3.02  90 3.05  82 3.14
  29  0.219  0.085  0.038-  85 2.29  83 2.30  96 2.37  10 2.37  27 2.38  39 2.41  49 2.53  77 2.59
                            12 2.71 100 2.85
  30  0.861  0.504  0.594-  20 2.18  82 2.22  33 2.31  99 2.32  98 2.37  72 2.42  54 2.58  74 2.72
                            40 2.73  35 2.79  69 3.11  36 3.15
  31  0.858  0.013  0.325-  95 2.05  15 2.27  64 2.27  58 2.32  70 2.33  17 2.38  38 2.51  96 2.52
                            34 2.54  25 2.65  56 2.96  11 3.04
  32  0.813  0.068  0.773-  48 2.09   4 2.17  37 2.21  40 2.21  50 2.34   3 2.43  70 2.54  56 2.58
                            61 2.62  62 2.64  21 2.70  80 2.92  11 3.10
  33  0.832  0.617  0.400-  44 2.08  72 2.26  58 2.27  30 2.31  20 2.41  43 2.53  35 2.59  36 2.77
                            95 2.77  94 2.80   9 2.91  74 2.98  82 3.07   2 3.12
  34  0.639  0.129  0.347-  60 2.02  19 2.12  57 2.12  70 2.37  76 2.47  31 2.54  38 2.61  25 2.68
                            88 2.69  55 2.69  24 2.87  35 2.90
  35  0.789  0.370  0.367-  19 2.16  82 2.17  94 2.26  20 2.27  57 2.38  33 2.59  15 2.63  38 2.73
                            43 2.76  30 2.79  13 2.89  34 2.90
  36  0.101  0.588  0.420-  73 2.17  42 2.35  72 2.41  13 2.52  98 2.52  63 2.53  87 2.60  82 2.71
                             7 2.71  44 2.74  33 2.77  52 2.78  95 3.06  30 3.15
  37  0.851  0.080  0.985-   4 2.10  32 2.21  38 2.23  96 2.25  48 2.31  41 2.35  61 2.39  39 2.39
                            25 2.42  64 2.62  24 2.67  21 2.97  85 3.09
  38  0.808  0.194  0.167-  24 2.15  41 2.19  37 2.23  15 2.35  19 2.44  25 2.46  96 2.46  31 2.51
                            34 2.61  35 2.73  94 2.82  47 2.85  85 3.13
  39  0.045  0.956  0.945-  80 2.21  96 2.30  66 2.37  37 2.39   3 2.39  29 2.41  77 2.41  53 2.44
                            83 2.46   4 2.50   1 2.54  64 2.68  61 2.83
  40  0.820  0.246  0.651-  32 2.21  70 2.31  11 2.31  99 2.31  21 2.44  57 2.45  62 2.64  82 2.67
                            30 2.73   4 2.73  45 3.06  68 3.08
  41  0.864  0.309  0.995-  38 2.19  21 2.20  99 2.25   4 2.33  37 2.35  85 2.35  16 2.37  47 2.37
                            94 2.51  24 2.94
  42  0.188  0.692  0.606-  97 2.19   7 2.20  79 2.22  84 2.22  22 2.24  98 2.27  36 2.35  72 2.44
                            53 2.61  73 2.64   6 2.88  67 2.89
  43  0.612  0.563  0.301-  91 2.18   9 2.29  20 2.32  94 2.53  33 2.53  51 2.58  19 2.60  75 2.63
                            35 2.76   2 2.77  26 2.87  87 3.12
  44  0.930  0.667  0.229-  33 2.08  95 2.26  52 2.31   1 2.33  64 2.40  59 2.43  94 2.48   9 2.67
                            36 2.74  13 2.82  16 2.86  58 2.99  77 3.04  73 3.12
  45  0.548  0.368  0.690-  57 2.33   8 2.34  69 2.35  62 2.37  92 2.38  21 2.42  89 2.45  67 2.49
                            20 2.54  26 2.55  71 2.67  40 3.06
  46  0.442  0.033  0.809-  10 2.08   5 2.19  89 2.23  48 2.27  62 2.28  23 2.50  83 2.56  50 2.62
                            71 2.68   6 2.71  53 2.96  55 2.97
  47  0.647  0.382  0.039-  21 2.17  24 2.17  75 2.23  94 2.25  19 2.31  41 2.37  69 2.43  51 2.46
                           100 2.59  89 2.71   8 2.82  38 2.85
  48  0.648  0.046  0.892-  32 2.09  50 2.21  24 2.26  46 2.27  37 2.31  61 2.35  10 2.41  89 2.47
                            62 2.50  25 2.54  21 2.61  65 2.89
  49  0.275  0.278  0.895-  18 2.06  71 2.22  83 2.25  89 2.30  14 2.32 100 2.49  85 2.52  29 2.53
                             8 2.63  81 2.93  68 2.95  67 2.98
  50  0.651  0.915  0.719-  74 2.17  48 2.21  86 2.27  32 2.34  55 2.35  62 2.42   6 2.51  61 2.57
                            46 2.62  56 2.63  70 2.74   2 2.96
  51  0.445  0.474  0.133-  75 2.14  87 2.16 100 2.20  78 2.29  90 2.35  14 2.37  47 2.46  43 2.58
                             8 2.69  19 2.72  81 2.77  91 3.01
  52  0.140  0.627  0.153-   1 2.29  44 2.31  66 2.44  87 2.46  81 2.49  16 2.55  13 2.57  77 2.57
                            73 2.63  78 2.63  14 2.66  36 2.78
  53  0.200  0.877  0.782-  83 2.19  66 2.23   3 2.24  79 2.30  23 2.39  22 2.40  39 2.44   5 2.45
                            80 2.45  42 2.61   6 2.72  97 2.86  46 2.96  84 3.09
  54  0.880  0.631  0.812-  80 2.18  99 2.29  79 2.36  59 2.41  74 2.43  16 2.52  69 2.53   1 2.56
                            30 2.58  61 2.82  86 2.82  72 2.88  98 2.99
  55  0.528  0.983  0.536-  62 2.20  76 2.22   5 2.28  88 2.35  50 2.35  84 2.58  70 2.59   2 2.59
                             6 2.60  34 2.69  93 2.89  46 2.97  57 3.09  58 3.14
  56  0.874  0.902  0.592-  70 2.08  72 2.10  74 2.29   3 2.31  80 2.37  58 2.44  22 2.55  32 2.58
                            50 2.63  95 2.69  11 2.90  31 2.96
  57  0.631  0.265  0.504-  34 2.12  62 2.21  76 2.22  20 2.32  45 2.33  35 2.38  40 2.45  70 2.50
                            26 2.52  19 2.61  55 3.09
  58  0.754  0.825  0.401-  95 2.25  33 2.27  31 2.32   2 2.35   9 2.36  56 2.44  88 2.47  74 2.72
                            70 2.77  72 2.82  44 2.99  64 3.02  55 3.14
  59  0.799  0.669  0.030-   1 2.05   9 2.21  75 2.24  61 2.26  54 2.41  44 2.43  16 2.47  94 2.49
                            86 2.62  64 2.68  65 2.92  69 2.96
  60  0.482  0.089  0.234-  34 2.02  88 2.30  93 2.31  10 2.33  24 2.36 100 2.42  90 2.53  25 2.56
                            12 2.58  76 2.63  19 2.70  27 3.00
  61  0.785  0.864  0.926-  86 2.18  59 2.26  80 2.34  48 2.35  37 2.39  64 2.52  50 2.57  32 2.62
                            65 2.62  25 2.65   1 2.71  54 2.82  39 2.83  74 3.15
  62  0.585  0.139  0.673-  55 2.20  57 2.21  46 2.28  45 2.37  50 2.42  70 2.50  89 2.50  48 2.50
                            76 2.55  32 2.64  40 2.64  21 2.70  71 2.85   5 2.96
  63  0.204  0.363  0.400-  28 2.17  87 2.26  90 2.27  13 2.29  27 2.38  82 2.48  36 2.53  26 2.58
                            68 2.83  15 2.95   7 3.01  67 3.03
  64  0.894  0.885  0.147-  96 2.20  95 2.26  31 2.27   1 2.34  25 2.36  77 2.37  44 2.40  61 2.52
                             9 2.61  37 2.62  39 2.68  59 2.68  58 3.02
  65  0.557  0.822  0.038-   9 2.19  86 2.20  23 2.21  78 2.33  25 2.36  75 2.36  10 2.55  12 2.59
                            61 2.62  48 2.89  59 2.92  88 3.03
  66  0.193  0.779  0.977-   1 2.17  77 2.17  23 2.21  79 2.23  53 2.23  81 2.37  39 2.37  78 2.43
                            52 2.44  12 2.69  80 3.03  97 3.09
  67  0.319  0.446  0.660-  97 2.12  71 2.20   7 2.22  26 2.32  98 2.45  45 2.49   8 2.51  68 2.57
                            92 2.77  18 2.85  42 2.89  49 2.98  63 3.03
  68  0.117  0.296  0.654-  98 2.10  11 2.19  71 2.23  18 2.35  28 2.45  82 2.46  67 2.57   4 2.78
                            83 2.80  63 2.83  49 2.95  99 3.04  40 3.08
  69  0.672  0.498  0.833-  21 2.13  92 2.24   8 2.35  45 2.35  99 2.36  47 2.43  75 2.50  86 2.50
                            54 2.53  59 2.96  30 3.11  74 3.11
  70  0.768  0.064  0.529-  56 2.08  40 2.31  31 2.33  34 2.37  57 2.50  62 2.50  11 2.53  32 2.54
                            55 2.59  50 2.74  58 2.77
  71  0.323  0.233  0.688-  67 2.20  49 2.22  68 2.23   5 2.34  83 2.34  28 2.55  76 2.56  89 2.64
                            45 2.67  46 2.68  62 2.85
  72  0.956  0.717  0.554-  56 2.10  33 2.26  36 2.41  30 2.42  42 2.44  74 2.45  95 2.46  22 2.49
                            80 2.66  98 2.77  58 2.82  54 2.88  79 3.04  73 3.12
  73  0.185  0.773  0.360-  36 2.17  84 2.21  95 2.35  77 2.45  22 2.49  52 2.63  42 2.64  93 2.71
                            17 2.78  91 2.80  12 2.85   7 2.90  87 2.95  72 3.12  44 3.12
  74  0.737  0.734  0.650-  50 2.17   2 2.24  56 2.29  86 2.34  54 2.43  72 2.45  92 2.47  58 2.72
                            30 2.72  80 2.89  20 2.98  33 2.98  69 3.11  61 3.15
  75  0.594  0.593  0.045-  51 2.14  47 2.23  59 2.24  65 2.36   9 2.38  78 2.39  86 2.49  69 2.50
                            43 2.63   8 2.66  94 2.77
  76  0.437  0.170  0.474-  55 2.22  57 2.22  28 2.33  93 2.43  90 2.47  34 2.47   5 2.53  26 2.54
                            62 2.55  71 2.56  60 2.63
  77  0.126  0.878  0.153-  66 2.17  12 2.25  96 2.26  64 2.37  39 2.41  73 2.45   1 2.51  17 2.55
                            52 2.57  29 2.59  95 2.62  44 3.04  93 3.10
  78  0.382  0.683  0.085-  81 2.23  12 2.26  51 2.29  23 2.32  65 2.33  75 2.39  66 2.43  91 2.56
                            52 2.63  87 2.75
  79  0.107  0.673  0.806-  80 2.14  42 2.22  66 2.23  53 2.30  54 2.36  98 2.39  97 2.41  81 2.46
                             1 2.50  18 2.76  16 2.91  72 3.04
  80  0.966  0.826  0.791-   3 2.09  79 2.14  54 2.18  39 2.21  61 2.34  56 2.37  53 2.45   1 2.54
                            72 2.66  74 2.89  32 2.92  22 2.93  66 3.03
  81  0.261  0.559  0.953-  14 2.18  78 2.23   8 2.27  97 2.30  18 2.31  66 2.37  79 2.46  52 2.49
                            51 2.77  49 2.93  23 2.96  16 2.96
  82  0.973  0.361  0.473-  35 2.17  30 2.22  15 2.25  11 2.28  13 2.43  68 2.46  63 2.48  98 2.57
                            40 2.67  36 2.71  33 3.07  28 3.14
  83  0.197  0.089  0.814-   3 2.13  53 2.19  49 2.25  29 2.30  71 2.34   4 2.42   5 2.43  39 2.46
                            46 2.56  68 2.80
  84  0.329  0.829  0.512-   6 2.11  73 2.21  42 2.22   5 2.23  22 2.29   7 2.40  93 2.42  55 2.58
                            91 2.62   2 2.66  88 2.88  53 3.09
  85  0.083  0.264  0.049-  14 2.07  29 2.29  96 2.33  41 2.35   4 2.44  18 2.50  27 2.52  49 2.52
                            13 2.63  16 2.77  15 3.06  37 3.09  38 3.13
  86  0.628  0.739  0.852-  61 2.18  65 2.20  50 2.27  74 2.34  92 2.35  75 2.49  69 2.50  23 2.57
                            59 2.62   6 2.66  54 2.82
  87  0.310  0.522  0.289-  51 2.16  63 2.26  91 2.29  90 2.29   7 2.37  52 2.46  26 2.52  14 2.57
                            36 2.60  78 2.75  13 2.95  73 2.95  43 3.12
  88  0.533  0.889  0.326-  91 2.16  60 2.30  55 2.35   2 2.47  58 2.47   9 2.50  12 2.54  93 2.59
                            34 2.69  25 2.74  84 2.88  65 3.03
  89  0.495  0.233  0.881-  21 2.21 100 2.22  46 2.23  49 2.30  10 2.40  24 2.40  45 2.45  48 2.47
                             8 2.47  62 2.50  71 2.64  47 2.71
  90  0.387  0.311  0.285- 100 2.13  26 2.25  63 2.27  87 2.29  27 2.30  51 2.35  19 2.40  76 2.47
                            60 2.53  14 2.71  28 3.05
  91  0.447  0.696  0.327-  88 2.16  43 2.18   2 2.27  87 2.29   7 2.30  78 2.56  84 2.62  12 2.78
                            73 2.80   9 2.82  51 3.01
  92  0.540  0.600  0.691-  97 2.23  69 2.24   6 2.28   2 2.35  86 2.35  45 2.38   8 2.45  74 2.47
                            20 2.54   7 2.70  67 2.77  26 3.09
  93  0.310  0.007  0.357-  17 2.27  28 2.28  60 2.31  12 2.36  27 2.38  84 2.42  76 2.43  88 2.59
                            73 2.71   5 2.79  55 2.89  22 3.06  77 3.10
  94  0.800  0.470  0.170-  47 2.25  35 2.26  44 2.48  59 2.49  41 2.51  43 2.53  16 2.54  19 2.58
                            13 2.68  75 2.77  33 2.80  38 2.82   9 3.08
  95  0.968  0.847  0.352-  31 2.05  17 2.22  58 2.25  44 2.26  64 2.26  73 2.35  72 2.46  77 2.62
                            56 2.69  22 2.70  33 2.77  36 3.06
  96  0.010  0.066  0.137-  64 2.20  37 2.25  77 2.26  39 2.30  85 2.33  17 2.34  15 2.36  29 2.37
                            38 2.46  31 2.52  27 2.59   4 3.12
  97  0.333  0.632  0.752-   6 2.11  67 2.12  42 2.19  92 2.23  81 2.30   8 2.35  79 2.41  23 2.43
                             7 2.56  53 2.86  98 3.05  66 3.09
  98  0.086  0.499  0.650-  68 2.10  42 2.27  18 2.34  30 2.37  79 2.39  67 2.45  36 2.52  82 2.57
                            99 2.74  72 2.77  54 2.99  97 3.05
  99  0.881  0.407  0.799-  21 2.25  41 2.25  54 2.29  40 2.31  30 2.32  69 2.36  16 2.54  18 2.55
                             4 2.65  98 2.74  68 3.04
 100  0.427  0.265  0.085-  90 2.13  24 2.20  51 2.20  89 2.22  14 2.38  10 2.38  60 2.42  49 2.49
                            47 2.59  19 2.66  29 2.85  27 2.93   8 3.04
 

IMPORTANT INFORMATION: All symmetrisations will be switched off!
NOSYMM: (Re-)initialisation of all symmetry stuff for point group C_1.

 
 
 KPOINTS: simple                                  

Automatic generation of k-mesh.
Space group operators:
 irot       det(A)        alpha          n_x          n_y          n_z        tau_x        tau_y        tau_z
    1     1.000000     0.000000     1.000000     0.000000     0.000000     0.000000     0.000000     0.000000
 
 Subroutine IBZKPT returns following result:
 ===========================================
 
 Found      1 irreducible k-points:
 
 Following reciprocal coordinates:
            Coordinates               Weight
  0.000000  0.000000  0.000000      1.000000
 
 Following cartesian coordinates:
            Coordinates               Weight
  0.000000  0.000000  0.000000      1.000000
 


--------------------------------------------------------------------------------------------------------




 Dimension of arrays:
   k-points           NKPTS =      1   k-points in BZ     NKDIM =      1   number of bands    NBANDS=    304
   number of dos      NEDOS =    301   number of ions     NIONS =    100
   non local maximal  LDIM  =      4   non local SUM 2l+1 LMDIM =      8
   total plane-waves  NPLWV =  64000
   max r-space proj   IRMAX =   1017   max aug-charges    IRDMAX=   2209
   dimension x,y,z NGX =    40 NGY =   40 NGZ =   40
   dimension x,y,z NGXF=    80 NGYF=   80 NGZF=   80
   support grid    NGXF=    80 NGYF=   80 NGZF=   80
   ions per type =             100
   NGX,Y,Z   is equivalent  to a cutoff of   6.51,  6.51,  6.51 a.u.
   NGXF,Y,Z  is equivalent  to a cutoff of  13.02, 13.02, 13.02 a.u.

 SYSTEM =  unknown system                          
 POSCAR =  Si                                      

 Startparameter for this run:
   NWRITE =      2    write-flag & timer
   PREC   = normal    normal or accurate (medium, high low for compatibility)
   ISTART =      0    job   : 0-new  1-cont  2-samecut
   ICHARG =      2    charge: 1-file 2-atom 10-const
   ISPIN  =      2    spin polarized calculation?
   LNONCOLLINEAR =      F non collinear calculations
   LSORBIT =      F    spin-orbit coupling
   INIWAV =      1    electr: 0-lowe 1-rand  2-diag
   LASPH  =      F    aspherical Exc in radial PAW
   METAGGA=      F    non-selfconsistent MetaGGA calc.

 Electronic Relaxation 1
   ENCUT  =  245.3 eV  18.03 Ry    4.25 a.u.  13.04 13.04 13.04*2*pi/ulx,y,z
   ENINI  =  245.3     initial cutoff
   ENAUG  =  322.1 eV  augmentation charge cutoff
   NELM   =     60;   NELMIN=  4; NELMDL=-12     # of ELM steps 
   EDIFF  = 0.1E-04   stopping-criterion for ELM
   LREAL  =      T    real-space projection
   NLSPLINE    = F    spline interpolate recip. space projectors
   LCOMPAT=      F    compatible to vasp.4.4
   GGA_COMPAT  = T    GGA compatible to vasp.4.4-vasp.4.6
   LMAXPAW     = -100 max onsite density
   LMAXMIX     =    2 max onsite mixed and CHGCAR
   VOSKOWN=      0    Vosko Wilk Nusair interpolation
   ROPT   =   -0.00050
 Ionic relaxation
   EDIFFG = 0.1E-03   stopping-criterion for IOM
   NSW    =      0    number of steps for IOM
   NBLOCK =      1;   KBLOCK =      1    inner block; outer block 
   IBRION =     -1    ionic relax: 0-MD 1-quasi-New 2-CG
   NFREE  =      0    steps in history (QN), initial steepest desc. (CG)
   ISIF   =      2    stress and relaxation
   IWAVPR =     10    prediction:  0-non 1-charg 2-wave 3-comb
   ISYM   =      0    0-nonsym 1-usesym 2-fastsym
   LCORR  =      T    Harris-Foulkes like correction to forces

   POTIM  = 0.5000    time-step for ionic-motion
   TEIN   =    0.0    initial temperature
   TEBEG  =    0.0;   TEEND  =   0.0 temperature during run
   SMASS  =  -3.00    Nose mass-parameter (am)
   estimated Nose-frequenzy (Omega)   =  0.10E-29 period in steps =****** mass=  -0.238E-26a.u.
   SCALEE = 1.0000    scale energy and forces
   NPACO  =    256;   APACO  = 16.0  distance and # of slots for P.C.
   PSTRESS=    0.0 pullay stress

  Mass of Ions in am
   POMASS =  28.09
  Ionic Valenz
   ZVAL   =   4.00
  Atomic Wigner-Seitz radii
   RWIGS  =  -1.00
  virtual crystal weights 
   VCA    =   1.00
   NELECT =     400.0000    total number of electrons
   NUPDOWN=      -1.0000    fix difference up-down

 DOS related values:
   EMIN   =  10.00;   EMAX   =-10.00  energy-range for DOS
   EFERMI =   0.00
   ISMEAR =     0;   SIGMA  =   0.05  broadening in eV -4-tet -1-fermi 0-gaus

 Electronic relaxation 2 (details)
   IALGO  =     48    algorithm
   LDIAG  =      T    sub-space diagonalisation (order eigenvalues)
   LSUBROT=      F    optimize rotation matrix (better conditioning)
   TURBO    =      0    0=normal 1=particle mesh
   IRESTART =      0    0=no restart 2=restart with 2 vectors
   NREBOOT  =      0    no. of reboots
   NMIN     =      0    reboot dimension
   EREF     =   0.00    reference energy to select bands
   IMIX   =      4    mixing-type and parameters
     AMIX     =   0.40;   BMIX     =  1.00
     AMIX_MAG =   1.60;   BMIX_MAG =  1.00
     AMIN     =   0.10
     WC   =   100.;   INIMIX=   1;  MIXPRE=   1;  MAXMIX= -45

 Intra band minimization:
   WEIMIN = 0.0000     energy-eigenvalue tresh-hold
   EBREAK =  0.82E-08  absolut break condition
   DEPER  =   0.30     relativ break condition  

   TIME   =   0.40     timestep for ELM

  volume/ion in A,a.u.               =      10.65        71.86
  Fermi-wavevector in a.u.,A,eV,Ry     =   1.181242  2.232223 18.984649  1.395332
  Thomas-Fermi vector in A             =   2.317519
 
 Write flags
   LWAVE        =      F    write WAVECAR
   LDOWNSAMPLE  =      F    k-point downsampling of WAVECAR
   LCHARG       =      F    write CHGCAR
   LVTOT        =      F    write LOCPOT, total local potential
   LVHAR        =      F    write LOCPOT, Hartree potential only
   LELF         =      F    write electronic localiz. function (ELF)
   LORBIT       =      0    0 simple, 1 ext, 2 COOP (PROOUT), +10 PAW based schemes


 Dipole corrections
   LMONO  =      F    monopole corrections only (constant potential shift)
   LDIPOL =      F    correct potential (dipole corrections)
   IDIPOL =      0    1-x, 2-y, 3-z, 4-all directions 
   EPSILON=  1.0000000 bulk dielectric constant

 Exchange correlation treatment:
   GGA     =    --    GGA type
   LEXCH   =     8    internal setting for exchange type
   VOSKOWN=      0    Vosko Wilk Nusair interpolation
   LHFCALC =     F    Hartree Fock is set to
   LHFONE  =     F    Hartree Fock one center treatment
   AEXX    =    0.0000 exact exchange contribution

 Linear response parameters
   LEPSILON=     F    determine dielectric tensor
   LRPA    =     F    only Hartree local field effects (RPA)
   LNABLA  =     F    use nabla operator in PAW spheres
   LVEL    =     F    velocity operator in full k-point grid
   LINTERFAST=   F  fast interpolation
   KINTER  =     0    interpolate to denser k-point grid
   CSHIFT  =0.1000    complex shift for real part using Kramers Kronig
   OMEGAMAX=  -1.0    maximum frequency
   DEG_THRESHOLD= 0.2000000E-02 threshold for treating states as degnerate
   RTIME   =   -0.100 relaxation time in fs
  (WPLASMAI=    0.000 imaginary part of plasma frequency in eV, 0.658/RTIME)
   DFIELD  = 0.0000000 0.0000000 0.0000000 field for delta impulse in time
 
 Orbital magnetization related:
   ORBITALMAG=     F  switch on orbital magnetization
   LCHIMAG   =     F  perturbation theory with respect to B field
   DQ        =  0.001000  dq finite difference perturbation B field
   LLRAUG    =     F  two centre corrections for induced B field



--------------------------------------------------------------------------------------------------------


 Static calculation
 charge density and potential will be updated during run
 spin polarized calculation
 RMM-DIIS sequential band-by-band
 perform sub-space diagonalisation
    before iterative eigenvector-optimisation
 modified Broyden-mixing scheme, WC =      100.0
 initial mixing is a Kerker type mixing with AMIX =  0.4000 and BMIX =      1.0000
 Hartree-type preconditioning will be used
 using additional bands          104
 real space projection scheme for non local part
 use partial core corrections
 calculate Harris-corrections to forces 
   (improved forces if not selfconsistent)
 use gradient corrections 
 use of overlap-Matrix (Vanderbilt PP)
 Gauss-broadening in eV      SIGMA  =   0.05


--------------------------------------------------------------------------------------------------------


  energy-cutoff  :      245.34
  volume of cell :     1064.80
      direct lattice vectors                 reciprocal lattice vectors
    10.211495000  0.000000000  0.000000000     0.097928854  0.000000000  0.000000000
     0.000000000 10.211495000  0.000000000     0.000000000  0.097928854  0.000000000
     0.000000000  0.000000000 10.211495000     0.000000000  0.000000000  0.097928854

  length of vectors
    10.211495000 10.211495000 10.211495000     0.097928854  0.097928854  0.097928854


 
 k-points in units of 2pi/SCALE and weight: simple                                  
   0.00000000  0.00000000  0.00000000       1.000
 
 k-points in reciprocal lattice and weights: simple                                  
   0.00000000  0.00000000  0.00000000       1.000
 
 position of ions in fractional coordinates (direct lattice) 
   0.99165900  0.72394400  0.01609870
   0.57153700  0.73424200  0.50722900
   0.03456470  0.00365210  0.71523000
   0.97879600  0.17291000  0.85343200
   0.32747800  0.01213730  0.62976400
   0.43655800  0.79848800  0.68617800
   0.35277700  0.59511900  0.50494100
   0.44685800  0.46926500  0.86932100
   0.68355400  0.74748100  0.19479200
   0.44560400  0.04412890  0.01272730
   0.99798500  0.15282000  0.54752800
   0.34610400  0.88745300  0.16213100
   0.04339570  0.41703600  0.25203600
   0.23327000  0.39384500  0.08585720
   0.97740600  0.20027100  0.32254500
   0.97931700  0.51014600  0.00248166
   0.08892400  0.02741290  0.34922600
   0.12435500  0.40724700  0.85589200
   0.62025400  0.31310000  0.25296200
   0.66592900  0.48933100  0.50827900
   0.70149800  0.29278800  0.85391200
   0.12139300  0.89633200  0.56087600
   0.39187000  0.81136300  0.89845400
   0.62146100  0.17327100  0.07048150
   0.68738200  0.98865000  0.13086700
   0.44022800  0.41880000  0.47030900
   0.20456800  0.18488700  0.24881200
   0.20910400  0.16547300  0.47616100
   0.21861900  0.08501620  0.03847670
   0.86079500  0.50384600  0.59397000
   0.85792500  0.01277080  0.32527400
   0.81315600  0.06760370  0.77272700
   0.83238000  0.61712000  0.40011300
   0.63881400  0.12922600  0.34706800
   0.78884900  0.36977400  0.36700600
   0.10116500  0.58764000  0.42002500
   0.85072300  0.08031750  0.98507500
   0.80797200  0.19385000  0.16692100
   0.04496500  0.95567300  0.94456000
   0.81953300  0.24627600  0.65137700
   0.86381900  0.30939500  0.99525800
   0.18823600  0.69198500  0.60570500
   0.61175100  0.56348100  0.30082300
   0.93019200  0.66735900  0.22860000
   0.54805700  0.36754800  0.69004000
   0.44192700  0.03346870  0.80939700
   0.64713700  0.38185800  0.03874590
   0.64791400  0.04594290  0.89163700
   0.27520200  0.27849900  0.89487600
   0.65058200  0.91526800  0.71915100
   0.44539400  0.47410100  0.13318400
   0.14000900  0.62703100  0.15320800
   0.20021600  0.87664500  0.78156700
   0.87968500  0.63142500  0.81164300
   0.52767600  0.98254500  0.53608400
   0.87382800  0.90172300  0.59216800
   0.63092400  0.26538200  0.50357500
   0.75377900  0.82488100  0.40052500
   0.79925900  0.66921900  0.03011570
   0.48174100  0.08863870  0.23382900
   0.78452400  0.86376700  0.92566400
   0.58499500  0.13876300  0.67345900
   0.20375600  0.36318100  0.39960000
   0.89367900  0.88500600  0.14650500
   0.55739700  0.82183000  0.03811300
   0.19263500  0.77895900  0.97689000
   0.31912100  0.44648900  0.66020400
   0.11654900  0.29643500  0.65434600
   0.67208900  0.49826700  0.83322600
   0.76758700  0.06389260  0.52858200
   0.32327900  0.23339000  0.68810100
   0.95609600  0.71715600  0.55404600
   0.18549600  0.77322500  0.35979900
   0.73746600  0.73359500  0.65048900
   0.59399700  0.59344400  0.04517790
   0.43747700  0.17003100  0.47444800
   0.12581300  0.87821200  0.15273600
   0.38185800  0.68333300  0.08549290
   0.10728000  0.67275900  0.80634300
   0.96573000  0.82595500  0.79091100
   0.26101800  0.55888300  0.95257400
   0.97256000  0.36147700  0.47275700
   0.19722700  0.08863890  0.81393100
   0.32908800  0.82870600  0.51178800
   0.08261800  0.26353700  0.04918810
   0.62838200  0.73887400  0.85212300
   0.30968400  0.52213800  0.28858600
   0.53272300  0.88900300  0.32585800
   0.49504500  0.23254700  0.88113800
   0.38712000  0.31128800  0.28519600
   0.44665900  0.69593400  0.32697100
   0.53985100  0.60042700  0.69138700
   0.31036400  0.00684343  0.35666300
   0.80019800  0.47010600  0.17040800
   0.96768200  0.84727200  0.35200500
   0.00977212  0.06576250  0.13749900
   0.33312000  0.63235300  0.75247900
   0.08563600  0.49949000  0.65017400
   0.88139100  0.40720200  0.79851300
   0.42697900  0.26472800  0.08538080
 
 position of ions in cartesian coordinates  (Angst):
  10.12632092  7.39255054  0.16439179
   5.83624722  7.49770851  5.17956640
   0.35295726  0.03729340  7.30356757
   9.99497046  1.76566960  8.71481660
   3.34403996  0.12393998  6.43083194
   4.45790983  8.15375622  7.00690322
   3.60238057  6.07705469  5.15620250
   4.56308823  4.79189720  8.87706704
   6.98010825  7.63289849  1.98911753
   4.55028302  0.45062204  0.12996476
  10.19091884  1.56052067  5.59107943
   3.53423927  9.06222187  1.65559990
   0.44313497  4.25856103  2.57366435
   2.38203544  4.02174625  0.87673037
   9.98077648  2.04506632  3.29366665
  10.00029065  5.20935333  0.02534146
   0.90804698  0.27992669  3.56611955
   1.26985046  4.15860070  8.73993688
   6.33372062  3.19721908  2.58312020
   6.80013065  4.99680106  5.19028847
   7.16334332  2.98980320  8.71971812
   1.23960401  9.15288974  5.72738247
   4.00157855  8.28522922  9.17455853
   6.34604589  1.76935595  0.71972148
   7.01919786 10.09559453  1.33634772
   4.49538602  4.27657411  4.80255800
   2.08894511  1.88797268  2.54074249
   2.13526445  1.68972671  4.86231567
   2.23242683  0.86814250  0.39290463
   8.79000384  5.14502091  6.06532169
   8.76069685  0.13040896  3.32153382
   8.30353843  0.69033484  7.89069790
   8.49984421  6.30171779  4.08575190
   6.52324597  1.31959065  3.54408315
   8.05532762  3.77594535  3.74767993
   1.03304589  6.00068292  4.28908319
   8.68715366  0.82016175 10.05908844
   8.25060204  1.97949831  1.70451296
   0.45915987  9.75885006  9.64536972
   8.36865713  2.51484614  6.65153298
   8.82088340  3.15938550 10.16307209
   1.92217097  7.06620137  6.18515358
   6.24689228  5.75398341  3.07185256
   9.49865096  6.81473309  2.33434776
   5.59648132  3.75321456  7.04634001
   4.51273535  0.34176546  8.26515342
   6.60823624  3.89934106  0.39565356
   6.61617057  0.46914569  9.10494677
   2.81022385  2.84389115  9.13802180
   6.64341484  9.34625461  7.34360684
   4.54813860  4.84127999  1.36000775
   1.42970120  6.40292392  1.56448273
   2.04450468  8.95185603  7.98096751
   8.98289898  6.44779323  8.28808844
   5.38836084 10.03325335  5.47421909
   8.92309025  9.20793991  6.04692057
   6.44267727  2.70994697  5.14225359
   7.69721049  8.42326821  4.08995903
   8.16162928  6.83372647  0.30752632
   4.91929581  0.90513364  2.38774366
   8.01116290  8.82035240  9.45241331
   5.97367352  1.41697768  6.87702321
   2.08065338  3.70862097  4.08051340
   9.12579864  9.03723434  1.49603507
   5.69185668  8.39211294  0.38919071
   1.96709134  7.95433593  9.97550735
   3.25870250  4.55932019  6.74166984
   1.19013953  3.02704452  6.68185091
   6.86303346  5.08805098  8.50848313
   7.83821081  0.65243897  5.39761245
   3.30116189  2.38326082  7.02653992
   9.76316952  7.32323491  5.65763796
   1.89419148  7.89578322  3.67408569
   7.53063037  7.49110167  6.64246517
   6.06559740  6.05995044  0.46133390
   4.46729420  1.73627071  4.84482338
   1.28473882  8.96785745  1.55966290
   3.89934106  6.97785151  0.87301032
   1.09548918  6.86987516  8.23396751
   9.86154707  8.43423535  8.07638372
   2.66538400  5.70703096  9.72720464
   9.93129158  3.69122058  4.82755574
   2.01398252  0.90513568  8.31145234
   3.36048047  8.46232718  5.22612060
   0.84365329  2.69110676  0.50228404
   6.41671965  7.54500816  8.70144975
   3.16233662  5.33180958  2.94689450
   5.43989825  9.07804969  3.32749734
   5.05514954  2.37465253  8.99773628
   3.95307394  3.17871586  2.91227753
   4.56105615  7.10652656  3.33886273
   5.51268579  6.13125731  7.06009489
   3.16928043  0.06988165  3.64206244
   8.17121788  4.80048507  1.74012044
   9.88147990  8.65191379  3.59449730
   0.09978795  0.67153344  1.40407035
   3.40165321  6.45726950  7.68393555
   0.87447159  5.10053964  6.63924855
   9.00031979  4.15814119  8.15401151
   4.36009392  2.70326865  0.87186561
 


--------------------------------------------------------------------------------------------------------


 k-point  1 :   0.0000 0.0000 0.0000  plane waves:    9315

 maximum and minimum number of plane-waves per node :      9315     9315

 maximum number of plane-waves:      9315
 maximum index in each direction: 
   IXMAX=   13   IYMAX=   13   IZMAX=   13
   IXMIN=  -13   IYMIN=  -13   IZMIN=  -13


 serial   3D FFT for wavefunctions
 parallel 3D FFT for charge:
    minimum data exchange during FFTs selected (reduces bandwidth)


 total amount of memory used by VASP MPI-rank0    53946. kBytes
=======================================================================

   base      :      30000. kBytes
   nonlr-proj:       8278. kBytes
   fftplans  :       1377. kBytes
   grid      :       7520. kBytes
   one-center:        614. kBytes
   wavefun   :       6157. kBytes
 
     INWAV:  cpu time    0.0000: real time    0.0001
 Broyden mixing: mesh for mixing (old mesh)
   NGX = 27   NGY = 27   NGZ = 27
  (NGX  = 80   NGY  = 80   NGZ  = 80)
  gives a total of  19683 points

 initial charge density was supplied:
 charge density of overlapping atoms calculated
 number of electron     400.0000000 magnetization     100.0000000
 keeping initial charge density in first step


--------------------------------------------------------------------------------------------------------


 Maximum index for non-local projection operator          952
 Maximum index for augmentation-charges          191 (set IRDMAX)


--------------------------------------------------------------------------------------------------------


 First call to EWALD:  gamma=   0.174
 Maximum number of real-space cells 3x 3x 3
 Maximum number of reciprocal cells 3x 3x 3

    FEWALD:  cpu time    0.0076: real time    0.0076


--------------------------------------- Iteration      1(   1)  ---------------------------------------


    POTLOK:  cpu time    0.0553: real time    0.1286
    SETDIJ:  cpu time    0.0346: real time    0.0347
    EDDIAG:  cpu time    0.3474: real time    0.3495
  RMM-DIIS:  cpu time    0.4265: real time    0.4315
    ORTHCH:  cpu time    0.0967: real time    0.0973
       DOS:  cpu time    0.0004: real time    0.0004
    --------------------------------------------
      LOOP:  cpu time    0.9610: real time    1.0421

 eigenvalue-minimisations  :   608
 total energy-change (2. order) : 0.1402767E+04  (-0.7497228E+04)
 number of electron     400.0000000 magnetization     100.0000000
 augmentation part      400.0000000 magnetization     100.0000000

 Free energy of the ion-electron system (eV)
  ---------------------------------------------------
  alpha Z        PSCENC =       316.14514549
  Ewald energy   TEWEN  =    -14824.37750498
  -Hartree energ DENC   =      -146.36710435
  -exchange      EXHF   =         0.00000000
  -V(xc)+E(xc)   XCENC  =      -776.50558887
  PAW double counting   =      8803.41707833    -7043.47671478
  entropy T*S    EENTRO =        -0.00908810
  eigenvalues    EBANDS =      4767.81228531
  atomic energy  EATOM  =     10306.12861560
  Solvation  Ediel_sol  =         0.00000000
  ---------------------------------------------------
  free energy    TOTEN  =      1402.76712365 eV

  energy without entropy =     1402.77621175  energy(sigma->0) =     1402.77166770


--------------------------------------------------------------------------------------------------------




--------------------------------------- Iteration      1(   2)  ---------------------------------------


    EDDIAG:  cpu time    0.3385: real time    0.3406
  RMM-DIIS:  cpu time    0.4350: real time    0.4400
    ORTHCH:  cpu time    0.0968: real time    0.0974
       DOS:  cpu time    0.0003: real time    0.0003
    --------------------------------------------
      LOOP:  cpu time    0.8706: real time    0.8783

 eigenvalue-minimisations  :   608
 total energy-change (2. order) :-0.1382628E+04  (-0.1331394E+04)
 number of electron     400.0000000 magnetization     100.0000000
 augmentation part      400.0000000 magnetization     100.0000000

 Free energy of the ion-electron system (eV)
  ---------------------------------------------------
  alpha Z        PSCENC =       316.14514549
  Ewald energy   TEWEN  =    -14824.37750498
  -Hartree energ DENC   =      -146.36710435
  -exchange      EXHF   =         0.00000000
  -V(xc)+E(xc)   XCENC  =      -776.50558887
  PAW double counting   =      8803.41707833    -7043.47671478
  entropy T*S    EENTRO =        -0.05859351
  eigenvalues    EBANDS =      3385.23338498
  atomic energy  EATOM  =     10306.12861560
  Solvation  Ediel_sol  =         0.00000000
  ---------------------------------------------------
  free energy    TOTEN  =        20.13871792 eV

  energy without entropy =       20.19731142  energy(sigma->0) =       20.16801467


--------------------------------------------------------------------------------------------------------




--------------------------------------- Iteration      1(   3)  ---------------------------------------


    EDDIAG:  cpu time    0.3374: real time    0.3394
  RMM-DIIS:  cpu time    0.4354: real time    0.4404
    ORTHCH:  cpu time    0.0969: real time    0.0975
       DOS:  cpu time    0.0003: real time    0.0003
    --------------------------------------------
      LOOP:  cpu time    0.8700: real time    0.8776

 eigenvalue-minimisations  :   608
 total energy-change (2. order) :-0.2884340E+03  (-0.2830745E+03)
 number of electron     400.0000000 magnetization     100.0000000
 augmentation part      400.0000000 magnetization     100.0000000

 Free energy of the ion-electron system (eV)
  ---------------------------------------------------
  alpha Z        PSCENC =       316.14514549
  Ewald energy   TEWEN  =    -14824.37750498
  -Hartree energ DENC   =      -146.36710435
  -exchange      EXHF   =         0.00000000
  -V(xc)+E(xc)   XCENC  =      -776.50558887
  PAW double counting   =      8803.41707833    -7043.47671478
  entropy T*S    EENTRO =        -0.02895823
  eigenvalues    EBANDS =      3096.76973497
  atomic energy  EATOM  =     10306.12861560
  Solvation  Ediel_sol  =         0.00000000
  ---------------------------------------------------
  free energy    TOTEN  =      -268.29529683 eV

  energy without entropy =     -268.26633859  energy(sigma->0) =     -268.28081771


--------------------------------------------------------------------------------------------------------




--------------------------------------- Iteration      1(   4)  ---------------------------------------


    EDDIAG:  cpu time    0.3369: real time    0.3390
  RMM-DIIS:  cpu time    0.4325: real time    0.4377
    ORTHCH:  cpu time    0.0968: real time    0.0974
       DOS:  cpu time    0.0003: real time    0.0003
    --------------------------------------------
      LOOP:  cpu time    0.8665: real time    0.8744

 eigenvalue-minimisations  :   608
 total energy-change (2. order) :-0.8087938E+02  (-0.6783835E+02)
 number of electron     400.0000000 magnetization     100.0000000
 augmentation part      400.0000000 magnetization     100.0000000

 Free energy of the ion-electron system (eV)
  ---------------------------------------------------
  alpha Z        PSCENC =       316.14514549
  Ewald energy   TEWEN  =    -14824.37750498
  -Hartree energ DENC   =      -146.36710435
  -exchange      EXHF   =         0.00000000
  -V(xc)+E(xc)   XCENC  =      -776.50558887
  PAW double counting   =      8803.41707833    -7043.47671478
  entropy T*S    EENTRO =        -0.04309863
  eigenvalues    EBANDS =      3015.90449768
  atomic energy  EATOM  =     10306.12861560
  Solvation  Ediel_sol  =         0.00000000
  ---------------------------------------------------
  free energy    TOTEN  =      -349.17467451 eV

  energy without entropy =     -349.13157588  energy(sigma->0) =     -349.15312520


--------------------------------------------------------------------------------------------------------




--------------------------------------- Iteration      1(   5)  ---------------------------------------


    EDDIAG:  cpu time    0.3359: real time    0.3379
  RMM-DIIS:  cpu time    0.4344: real time    0.4394
    ORTHCH:  cpu time    0.0972: real time    0.0978
       DOS:  cpu time    0.0003: real time    0.0003
    --------------------------------------------
      LOOP:  cpu time    0.8679: real time    0.8754

 eigenvalue-minimisations  :   608
 total energy-change (2. order) :-0.2631451E+02  (-0.2145048E+02)
 number of electron     400.0000000 magnetization     100.0000000
 augmentation part      400.0000000 magnetization     100.0000000

 Free energy of the ion-electron system (eV)
  ---------------------------------------------------
  alpha Z        PSCENC =       316.14514549
  Ewald energy   TEWEN  =    -14824.37750498
  -Hartree energ DENC   =      -146.36710435
  -exchange      EXHF   =         0.00000000
  -V(xc)+E(xc)   XCENC  =      -776.50558887
  PAW double counting   =      8803.41707833    -7043.47671478
  entropy T*S    EENTRO =        -0.03796974
  eigenvalues    EBANDS =      2989.58485671
  atomic energy  EATOM  =     10306.12861560
  Solvation  Ediel_sol  =         0.00000000
  ---------------------------------------------------
  free energy    TOTEN  =      -375.48918659 eV

  energy without entropy =     -375.45121685  energy(sigma->0) =     -375.47020172


--------------------------------------------------------------------------------------------------------




--------------------------------------- Iteration      1(   6)  ---------------------------------------


    EDDIAG:  cpu time    0.3368: real time    0.3387
  RMM-DIIS:  cpu time    0.4377: real time    0.4428
    ORTHCH:  cpu time    0.0974: real time    0.0980
       DOS:  cpu time    0.0003: real time    0.0003
    --------------------------------------------
      LOOP:  cpu time    0.8722: real time    0.8798

 eigenvalue-minimisations  :   608
 total energy-change (2. order) :-0.9702237E+01  (-0.7459332E+01)
 number of electron     400.0000000 magnetization     100.0000000
 augmentation part      400.0000000 magnetization     100.0000000

 Free energy of the ion-electron system (eV)
  ---------------------------------------------------
  alpha Z        PSCENC =       316.14514549
  Ewald energy   TEWEN  =    -14824.37750498
  -Hartree energ DENC   =      -146.36710435
  -exchange      EXHF   =         0.00000000
  -V(xc)+E(xc)   XCENC  =      -776.50558887
  PAW double counting   =      8803.41707833    -7043.47671478
  entropy T*S    EENTRO =        -0.04039863
  eigenvalues    EBANDS =      2979.88504864
  atomic energy  EATOM  =     10306.12861560
  Solvation  Ediel_sol  =         0.00000000
  ---------------------------------------------------
  free energy    TOTEN  =      -385.19142355 eV

  energy without entropy =     -385.15102493  energy(sigma->0) =     -385.17122424


--------------------------------------------------------------------------------------------------------




--------------------------------------- Iteration      1(   7)  ---------------------------------------


    EDDIAG:  cpu time    0.3356: real time    0.3378
  RMM-DIIS:  cpu time    0.4357: real time    0.4407
    ORTHCH:  cpu time    0.0969: real time    0.0975
       DOS:  cpu time    0.0003: real time    0.0003
    --------------------------------------------
      LOOP:  cpu time    0.8686: real time    0.8763

 eigenvalue-minimisations  :   608
 total energy-change (2. order) :-0.3544848E+01  (-0.2917896E+01)
 number of electron     400.0000000 magnetization     100.0000000
 augmentation part      400.0000000 magnetization     100.0000000

 Free energy of the ion-electron system (eV)
  ---------------------------------------------------
  alpha Z        PSCENC =       316.14514549
  Ewald energy   TEWEN  =    -14824.37750498
  -Hartree energ DENC   =      -146.36710435
  -exchange      EXHF   =         0.00000000
  -V(xc)+E(xc)   XCENC  =      -776.50558887
  PAW double counting   =      8803.41707833    -7043.47671478
  entropy T*S    EENTRO =        -0.04464573
  eigenvalues    EBANDS =      2976.34444770
  atomic energy  EATOM  =     10306.12861560
  Solvation  Ediel_sol  =         0.00000000
  ---------------------------------------------------
  free energy    TOTEN  =      -388.73627159 eV

  energy without entropy =     -388.69162586  energy(sigma->0) =     -388.71394873


--------------------------------------------------------------------------------------------------------




--------------------------------------- Iteration      1(   8)  ---------------------------------------


    EDDIAG:  cpu time    0.3358: real time    0.3378
  RMM-DIIS:  cpu time    0.4327: real time    0.4377
    ORTHCH:  cpu time    0.0970: real time    0.0975
       DOS:  cpu time    0.0003: real time    0.0003
    --------------------------------------------
      LOOP:  cpu time    0.8659: real time    0.8734

 eigenvalue-minimisations  :   608
 total energy-change (2. order) :-0.1420788E+01  (-0.1167230E+01)
 number of electron     400.0000000 magnetization     100.0000000
 augmentation part      400.0000000 magnetization     100.0000000

 Free energy of the ion-electron system (eV)
  ---------------------------------------------------
  alpha Z        PSCENC =       316.14514549
  Ewald energy   TEWEN  =    -14824.37750498
  -Hartree energ DENC   =      -146.36710435
  -exchange      EXHF   =         0.00000000
  -V(xc)+E(xc)   XCENC  =      -776.50558887
  PAW double counting   =      8803.41707833    -7043.47671478
  entropy T*S    EENTRO =        -0.04276531
  eigenvalues    EBANDS =      2974.92177950
  atomic energy  EATOM  =     10306.12861560
  Solvation  Ediel_sol  =         0.00000000
  ---------------------------------------------------
  free energy    TOTEN  =      -390.15705937 eV

  energy without entropy =     -390.11429406  energy(sigma->0) =     -390.13567672


--------------------------------------------------------------------------------------------------------




--------------------------------------- Iteration      1(   9)  ---------------------------------------


    EDDIAG:  cpu time    0.3364: real time    0.3385
  RMM-DIIS:  cpu time    0.9766: real time    0.9890
    ORTHCH:  cpu time    0.0974: real time    0.0980
       DOS:  cpu time    0.0003: real time    0.0003
    --------------------------------------------
      LOOP:  cpu time    1.4108: real time    1.4259

 eigenvalue-minimisations  :  1513
 total energy-change (2. order) :-0.8152442E+00  (-0.7553835E+00)
 number of electron     400.0000000 magnetization     100.0000000
 augmentation part      400.0000000 magnetization     100.0000000

 Free energy of the ion-electron system (eV)
  ---------------------------------------------------
  alpha Z        PSCENC =       316.14514549
  Ewald energy   TEWEN  =    -14824.37750498
  -Hartree energ DENC   =      -146.36710435
  -exchange      EXHF   =         0.00000000
  -V(xc)+E(xc)   XCENC  =      -776.50558887
  PAW double counting   =      8803.41707833    -7043.47671478
  entropy T*S    EENTRO =        -0.04178981
  eigenvalues    EBANDS =      2974.10555976
  atomic energy  EATOM  =     10306.12861560
  Solvation  Ediel_sol  =         0.00000000
  ---------------------------------------------------
  free energy    TOTEN  =      -390.97230362 eV

  energy without entropy =     -390.93051380  energy(sigma->0) =     -390.95140871


--------------------------------------------------------------------------------------------------------




--------------------------------------- Iteration      1(  10)  ---------------------------------------


    EDDIAG:  cpu time    0.3365: real time    0.3385
  RMM-DIIS:  cpu time    0.9532: real time    0.9654
    ORTHCH:  cpu time    0.0976: real time    0.0982
       DOS:  cpu time    0.0004: real time    0.0004
    --------------------------------------------
      LOOP:  cpu time    1.3877: real time    1.4024

 eigenvalue-minimisations  :  1487
 total energy-change (2. order) :-0.8999581E-01  (-0.4751399E-01)
 number of electron     400.0000000 magnetization     100.0000000
 augmentation part      400.0000000 magnetization     100.0000000

 Free energy of the ion-electron system (eV)
  ---------------------------------------------------
  alpha Z        PSCENC =       316.14514549
  Ewald energy   TEWEN  =    -14824.37750498
  -Hartree energ DENC   =      -146.36710435
  -exchange      EXHF   =         0.00000000
  -V(xc)+E(xc)   XCENC  =      -776.50558887
  PAW double counting   =      8803.41707833    -7043.47671478
  entropy T*S    EENTRO =        -0.04180916
  eigenvalues    EBANDS =      2974.01558330
  atomic energy  EATOM  =     10306.12861560
  Solvation  Ediel_sol  =         0.00000000
  ---------------------------------------------------
  free energy    TOTEN  =      -391.06229942 eV

  energy without entropy =     -391.02049027  energy(sigma->0) =     -391.04139484


--------------------------------------------------------------------------------------------------------




--------------------------------------- Iteration      1(  11)  ---------------------------------------


    EDDIAG:  cpu time    0.3361: real time    0.3382
  RMM-DIIS:  cpu time    0.9078: real time    0.9192
    ORTHCH:  cpu time    0.0969: real time    0.0975
       DOS:  cpu time    0.0003: real time    0.0003
    --------------------------------------------
      LOOP:  cpu time    1.3412: real time    1.3552

 eigenvalue-minimisations  :  1378
 total energy-change (2. order) :-0.1898870E-02  (-0.1310552E-02)
 number of electron     400.0000000 magnetization     100.0000000
 augmentation part      400.0000000 magnetization     100.0000000

 Free energy of the ion-electron system (eV)
  ---------------------------------------------------
  alpha Z        PSCENC =       316.14514549
  Ewald energy   TEWEN  =    -14824.37750498
  -Hartree energ DENC   =      -146.36710435
  -exchange      EXHF   =         0.00000000
  -V(xc)+E(xc)   XCENC  =      -776.50558887
  PAW double counting   =      8803.41707833    -7043.47671478
  entropy T*S    EENTRO =        -0.04180203
  eigenvalues    EBANDS =      2974.01367729
  atomic energy  EATOM  =     10306.12861560
  Solvation  Ediel_sol  =         0.00000000
  ---------------------------------------------------
  free energy    TOTEN  =      -391.06419829 eV

  energy without entropy =     -391.02239627  energy(sigma->0) =     -391.04329728


--------------------------------------------------------------------------------------------------------




--------------------------------------- Iteration      1(  12)  ---------------------------------------


    EDDIAG:  cpu time    0.3359: real time    0.3379
  RMM-DIIS:  cpu time    0.7725: real time    0.7822
    ORTHCH:  cpu time    0.0970: real time    0.0976
       DOS:  cpu time    0.0003: real time    0.0004
    CHARGE:  cpu time    0.0447: real time    0.0448
    MIXING:  cpu time    0.0010: real time    0.0010
    --------------------------------------------
      LOOP:  cpu time    1.2515: real time    1.2639

 eigenvalue-minimisations  :  1063
 total energy-change (2. order) :-0.1581848E-04  (-0.1537604E-04)
 number of electron     400.0000071 magnetization      67.0193451
 augmentation part      -23.6575115 magnetization      41.3574626

 Broyden mixing:
  rms(total) = 0.64036E+01    rms(broyden)= 0.64035E+01
  rms(prec ) = 0.66763E+01
  weight for this iteration     100.00

 Free energy of the ion-electron system (eV)
  ---------------------------------------------------
  alpha Z        PSCENC =       316.14514549
  Ewald energy   TEWEN  =    -14824.37750498
  -Hartree energ DENC   =      -146.36710435
  -exchange      EXHF   =         0.00000000
  -V(xc)+E(xc)   XCENC  =      -776.50558887
  PAW double counting   =      8803.41707833    -7043.47671478
  entropy T*S    EENTRO =        -0.04180203
  eigenvalues    EBANDS =      2974.01366148
  atomic energy  EATOM  =     10306.12861560
  Solvation  Ediel_sol  =         0.00000000
  ---------------------------------------------------
  free energy    TOTEN  =      -391.06421411 eV

  energy without entropy =     -391.02241208  energy(sigma->0) =     -391.04331310


--------------------------------------------------------------------------------------------------------




--------------------------------------- Iteration      1(  13)  ---------------------------------------


    POTLOK:  cpu time    0.0526: real time    0.0530
    SETDIJ:  cpu time    0.0349: real time    0.0350
    EDDIAG:  cpu time    0.3368: real time    0.3386
  RMM-DIIS:  cpu time    0.8844: real time    0.8955
    ORTHCH:  cpu time    0.0986: real time    0.0992
       DOS:  cpu time    0.0004: real time    0.0004
    CHARGE:  cpu time    0.0448: real time    0.0450
    MIXING:  cpu time    0.0012: real time    0.0012
    --------------------------------------------
      LOOP:  cpu time    1.4539: real time    1.4680

 eigenvalue-minimisations  :  1336
 total energy-change (2. order) :-0.3424217E+01  (-0.1880025E+01)
 number of electron     400.0000074 magnetization      33.9294547
 augmentation part      -23.6681282 magnetization      15.9034391

 Broyden mixing:
  rms(total) = 0.38691E+01    rms(broyden)= 0.38691E+01
  rms(prec ) = 0.39824E+01
  weight for this iteration     100.00

 eigenvalues of (default mixing * dielectric matrix)
  average eigenvalue GAMMA=   1.2621
  1.2621

 Free energy of the ion-electron system (eV)
  ---------------------------------------------------
  alpha Z        PSCENC =       316.14514549
  Ewald energy   TEWEN  =    -14824.37750498
  -Hartree energ DENC   =      -178.98061997
  -exchange      EXHF   =         0.00000000
  -V(xc)+E(xc)   XCENC  =      -775.29157532
  PAW double counting   =     32085.77536075   -30332.79015282
  entropy T*S    EENTRO =        -0.03822674
  eigenvalues    EBANDS =      3008.94052733
  atomic energy  EATOM  =     10306.12861560
  Solvation  Ediel_sol  =         0.00000000
  ---------------------------------------------------
  free energy    TOTEN  =      -394.48843068 eV

  energy without entropy =     -394.45020394  energy(sigma->0) =     -394.46931731


--------------------------------------------------------------------------------------------------------




--------------------------------------- Iteration      1(  14)  ---------------------------------------


    POTLOK:  cpu time    0.0525: real time    0.0528
    SETDIJ:  cpu time    0.0349: real time    0.0350
    EDDIAG:  cpu time    0.3359: real time    0.3378
  RMM-DIIS:  cpu time    0.8678: real time    0.8787
    ORTHCH:  cpu time    0.0991: real time    0.0997
       DOS:  cpu time    0.0004: real time    0.0004
    CHARGE:  cpu time    0.0448: real time    0.0450
    MIXING:  cpu time    0.0013: real time    0.0013
    --------------------------------------------
      LOOP:  cpu time    1.4367: real time    1.4507

 eigenvalue-minimisations  :  1327
 total energy-change (2. order) :-0.7043901E+01  (-0.7002218E+00)
 number of electron     400.0000073 magnetization      13.4618522
 augmentation part      -23.7421399 magnetization       4.0410154

 Broyden mixing:
  rms(total) = 0.18199E+01    rms(broyden)= 0.18199E+01
  rms(prec ) = 0.21150E+01
  weight for this iteration     100.00

 eigenvalues of (default mixing * dielectric matrix)
  average eigenvalue GAMMA=   1.4787
  2.3719  0.5854

 Free energy of the ion-electron system (eV)
  ---------------------------------------------------
  alpha Z        PSCENC =       316.14514549
  Ewald energy   TEWEN  =    -14824.37750498
  -Hartree energ DENC   =      -187.76079160
  -exchange      EXHF   =         0.00000000
  -V(xc)+E(xc)   XCENC  =      -770.75734089
  PAW double counting   =     67833.94884962   -66086.71415911
  entropy T*S    EENTRO =        -0.05076754
  eigenvalues    EBANDS =      3011.90562191
  atomic energy  EATOM  =     10306.12861560
  Solvation  Ediel_sol  =         0.00000000
  ---------------------------------------------------
  free energy    TOTEN  =      -401.53233150 eV

  energy without entropy =     -401.48156396  energy(sigma->0) =     -401.50694773


--------------------------------------------------------------------------------------------------------




--------------------------------------- Iteration      1(  15)  ---------------------------------------


    POTLOK:  cpu time    0.0524: real time    0.0527
    SETDIJ:  cpu time    0.0349: real time    0.0350
    EDDIAG:  cpu time    0.3363: real time    0.3382
  RMM-DIIS:  cpu time    0.9165: real time    0.9279
    ORTHCH:  cpu time    0.0992: real time    0.0998
       DOS:  cpu time    0.0004: real time    0.0004
    CHARGE:  cpu time    0.0437: real time    0.0439
    MIXING:  cpu time    0.0014: real time    0.0014
    --------------------------------------------
      LOOP:  cpu time    1.4847: real time    1.4992

 eigenvalue-minimisations  :  1382
 total energy-change (2. order) :-0.7212703E+00  (-0.1731983E+00)
 number of electron     400.0000073 magnetization       9.5526917
 augmentation part      -23.7765243 magnetization       4.8844076

 Broyden mixing:
  rms(total) = 0.37015E+00    rms(broyden)= 0.37014E+00
  rms(prec ) = 0.47904E+00
  weight for this iteration     100.00

 eigenvalues of (default mixing * dielectric matrix)
  average eigenvalue GAMMA=   1.2962
  2.3895  0.8953  0.6038

 Free energy of the ion-electron system (eV)
  ---------------------------------------------------
  alpha Z        PSCENC =       316.14514549
  Ewald energy   TEWEN  =    -14824.37750498
  -Hartree energ DENC   =      -199.66539373
  -exchange      EXHF   =         0.00000000
  -V(xc)+E(xc)   XCENC  =      -767.39092842
  PAW double counting   =     92314.14420870   -90570.62410346
  entropy T*S    EENTRO =        -0.05676947
  eigenvalues    EBANDS =      3023.44312846
  atomic energy  EATOM  =     10306.12861560
  Solvation  Ediel_sol  =         0.00000000
  ---------------------------------------------------
  free energy    TOTEN  =      -402.25360181 eV

  energy without entropy =     -402.19683234  energy(sigma->0) =     -402.22521708


--------------------------------------------------------------------------------------------------------




--------------------------------------- Iteration      1(  16)  ---------------------------------------


    POTLOK:  cpu time    0.0524: real time    0.0528
    SETDIJ:  cpu time    0.0349: real time    0.0350
    EDDIAG:  cpu time    0.3363: real time    0.3382
  RMM-DIIS:  cpu time    0.9110: real time    0.9228
    ORTHCH:  cpu time    0.0984: real time    0.0990
       DOS:  cpu time    0.0004: real time    0.0004
    CHARGE:  cpu time    0.0438: real time    0.0440
    MIXING:  cpu time    0.0018: real time    0.0018
    --------------------------------------------
      LOOP:  cpu time    1.4791: real time    1.4940

 eigenvalue-minimisations  :  1403
 total energy-change (2. order) :-0.1151326E+00  (-0.4461780E-01)
 number of electron     400.0000073 magnetization       6.0708119
 augmentation part      -23.7916272 magnetization       2.5897848

 Broyden mixing:
  rms(total) = 0.24433E+00    rms(broyden)= 0.24433E+00
  rms(prec ) = 0.27298E+00
  weight for this iteration     100.00

 eigenvalues of (default mixing * dielectric matrix)
  average eigenvalue GAMMA=   1.3388
  2.3596  1.6023  0.7709  0.6226

 Free energy of the ion-electron system (eV)
  ---------------------------------------------------
  alpha Z        PSCENC =       316.14514549
  Ewald energy   TEWEN  =    -14824.37750498
  -Hartree energ DENC   =      -199.01983676
  -exchange      EXHF   =         0.00000000
  -V(xc)+E(xc)   XCENC  =      -767.14122415
  PAW double counting   =     93230.68716227   -91487.42848892
  entropy T*S    EENTRO =        -0.05204709
  eigenvalues    EBANDS =      3022.68944412
  atomic energy  EATOM  =     10306.12861560
  Solvation  Ediel_sol  =         0.00000000
  ---------------------------------------------------
  free energy    TOTEN  =      -402.36873443 eV

  energy without entropy =     -402.31668734  energy(sigma->0) =     -402.34271089


--------------------------------------------------------------------------------------------------------




--------------------------------------- Iteration      1(  17)  ---------------------------------------


    POTLOK:  cpu time    0.0538: real time    0.0542
    SETDIJ:  cpu time    0.0349: real time    0.0350
    EDDIAG:  cpu time    0.3361: real time    0.3379
  RMM-DIIS:  cpu time    0.9407: real time    0.9523
    ORTHCH:  cpu time    0.0984: real time    0.0989
       DOS:  cpu time    0.0004: real time    0.0004
    CHARGE:  cpu time    0.0436: real time    0.0438
    MIXING:  cpu time    0.0016: real time    0.0016
    --------------------------------------------
      LOOP:  cpu time    1.5096: real time    1.5242

 eigenvalue-minimisations  :  1428
 total energy-change (2. order) :-0.8547889E-01  (-0.1275827E-01)
 number of electron     400.0000073 magnetization       3.3748264
 augmentation part      -23.7989196 magnetization       0.8013478

 Broyden mixing:
  rms(total) = 0.13781E+00    rms(broyden)= 0.13781E+00
  rms(prec ) = 0.15336E+00
  weight for this iteration     100.00

 eigenvalues of (default mixing * dielectric matrix)
  average eigenvalue GAMMA=   1.3718
  2.3233  2.2714  0.9081  0.6166  0.7395

 Free energy of the ion-electron system (eV)
  ---------------------------------------------------
  alpha Z        PSCENC =       316.14514549
  Ewald energy   TEWEN  =    -14824.37750498
  -Hartree energ DENC   =      -197.85973530
  -exchange      EXHF   =         0.00000000
  -V(xc)+E(xc)   XCENC  =      -767.01823541
  PAW double counting   =     92726.45543486   -90983.31383672
  entropy T*S    EENTRO =        -0.04704501
  eigenvalues    EBANDS =      3021.43294815
  atomic energy  EATOM  =     10306.12861560
  Solvation  Ediel_sol  =         0.00000000
  ---------------------------------------------------
  free energy    TOTEN  =      -402.45421333 eV

  energy without entropy =     -402.40716832  energy(sigma->0) =     -402.43069082


--------------------------------------------------------------------------------------------------------




--------------------------------------- Iteration      1(  18)  ---------------------------------------


    POTLOK:  cpu time    0.0525: real time    0.0528
    SETDIJ:  cpu time    0.0349: real time    0.0350
    EDDIAG:  cpu time    0.3379: real time    0.3398
  RMM-DIIS:  cpu time    0.9346: real time    0.9462
    ORTHCH:  cpu time    0.0991: real time    0.0997
       DOS:  cpu time    0.0004: real time    0.0004
    CHARGE:  cpu time    0.0435: real time    0.0437
    MIXING:  cpu time    0.0017: real time    0.0017
    --------------------------------------------
      LOOP:  cpu time    1.5046: real time    1.5193

 eigenvalue-minimisations  :  1407
 total energy-change (2. order) :-0.4349923E-01  (-0.3510514E-02)
 number of electron     400.0000073 magnetization       2.0108086
 augmentation part      -23.8048568 magnetization       0.1129211

 Broyden mixing:
  rms(total) = 0.66144E-01    rms(broyden)= 0.66142E-01
  rms(prec ) = 0.76463E-01
  weight for this iteration     100.00

 eigenvalues of (default mixing * dielectric matrix)
  average eigenvalue GAMMA=   1.3842
  2.7112  2.3682  1.1258  0.8678  0.6161  0.6161

 Free energy of the ion-electron system (eV)
  ---------------------------------------------------
  alpha Z        PSCENC =       316.14514549
  Ewald energy   TEWEN  =    -14824.37750498
  -Hartree energ DENC   =      -197.36210732
  -exchange      EXHF   =         0.00000000
  -V(xc)+E(xc)   XCENC  =      -766.87463068
  PAW double counting   =     92350.73048399   -90607.69417268
  entropy T*S    EENTRO =        -0.04904386
  eigenvalues    EBANDS =      3020.85550191
  atomic energy  EATOM  =     10306.12861560
  Solvation  Ediel_sol  =         0.00000000
  ---------------------------------------------------
  free energy    TOTEN  =      -402.49771256 eV

  energy without entropy =     -402.44866869  energy(sigma->0) =     -402.47319062


--------------------------------------------------------------------------------------------------------




--------------------------------------- Iteration      1(  19)  ---------------------------------------


    POTLOK:  cpu time    0.0524: real time    0.0527
    SETDIJ:  cpu time    0.0349: real time    0.0350
    EDDIAG:  cpu time    0.3371: real time    0.3389
  RMM-DIIS:  cpu time    0.9564: real time    0.9683
    ORTHCH:  cpu time    0.0984: real time    0.0990
       DOS:  cpu time    0.0004: real time    0.0004
    CHARGE:  cpu time    0.0435: real time    0.0437
    MIXING:  cpu time    0.0018: real time    0.0018
    --------------------------------------------
      LOOP:  cpu time    1.5249: real time    1.5398

 eigenvalue-minimisations  :  1443
 total energy-change (2. order) :-0.9057399E-02  (-0.9567505E-03)
 number of electron     400.0000073 magnetization       1.4495149
 augmentation part      -23.8061951 magnetization       0.0030597

 Broyden mixing:
  rms(total) = 0.27924E-01    rms(broyden)= 0.27921E-01
  rms(prec ) = 0.32776E-01
  weight for this iteration     100.00

 eigenvalues of (default mixing * dielectric matrix)
  average eigenvalue GAMMA=   1.3597
  2.9523  2.3719  1.1934  0.9834  0.8198  0.5883  0.6091

 Free energy of the ion-electron system (eV)
  ---------------------------------------------------
  alpha Z        PSCENC =       316.14514549
  Ewald energy   TEWEN  =    -14824.37750498
  -Hartree energ DENC   =      -197.64693341
  -exchange      EXHF   =         0.00000000
  -V(xc)+E(xc)   XCENC  =      -766.78488612
  PAW double counting   =     92161.83570657   -90418.85816257
  entropy T*S    EENTRO =        -0.05636916
  eigenvalues    EBANDS =      3021.10761865
  atomic energy  EATOM  =     10306.12861560
  Solvation  Ediel_sol  =         0.00000000
  ---------------------------------------------------
  free energy    TOTEN  =      -402.50676995 eV

  energy without entropy =     -402.45040079  energy(sigma->0) =     -402.47858537


--------------------------------------------------------------------------------------------------------




--------------------------------------- Iteration      1(  20)  ---------------------------------------


    POTLOK:  cpu time    0.0524: real time    0.0528
    SETDIJ:  cpu time    0.0349: real time    0.0350
    EDDIAG:  cpu time    0.3371: real time    0.3389
  RMM-DIIS:  cpu time    0.9377: real time    0.9493
    ORTHCH:  cpu time    0.0991: real time    0.0997
       DOS:  cpu time    0.0004: real time    0.0004
    CHARGE:  cpu time    0.0436: real time    0.0438
    MIXING:  cpu time    0.0020: real time    0.0020
    --------------------------------------------
      LOOP:  cpu time    1.5071: real time    1.5218

 eigenvalue-minimisations  :  1419
 total energy-change (2. order) :-0.2164030E-02  (-0.3045726E-03)
 number of electron     400.0000073 magnetization       1.1160516
 augmentation part      -23.8063834 magnetization      -0.0383758

 Broyden mixing:
  rms(total) = 0.14828E-01    rms(broyden)= 0.14826E-01
  rms(prec ) = 0.18161E-01
  weight for this iteration     100.00

 eigenvalues of (default mixing * dielectric matrix)
  average eigenvalue GAMMA=   1.3872
  3.2923  2.3132  1.6193  1.1208  0.8770  0.6954  0.6166  0.5629

 Free energy of the ion-electron system (eV)
  ---------------------------------------------------
  alpha Z        PSCENC =       316.14514549
  Ewald energy   TEWEN  =    -14824.37750498
  -Hartree energ DENC   =      -197.72660606
  -exchange      EXHF   =         0.00000000
  -V(xc)+E(xc)   XCENC  =      -766.76472940
  PAW double counting   =     92005.62597521   -90262.66172711
  entropy T*S    EENTRO =        -0.06138115
  eigenvalues    EBANDS =      3021.18327842
  atomic energy  EATOM  =     10306.12861560
  Solvation  Ediel_sol  =         0.00000000
  ---------------------------------------------------
  free energy    TOTEN  =      -402.50893398 eV

  energy without entropy =     -402.44755283  energy(sigma->0) =     -402.47824341


--------------------------------------------------------------------------------------------------------




--------------------------------------- Iteration      1(  21)  ---------------------------------------


    POTLOK:  cpu time    0.0524: real time    0.0528
    SETDIJ:  cpu time    0.0349: real time    0.0350
    EDDIAG:  cpu time    0.3371: real time    0.3390
  RMM-DIIS:  cpu time    0.9526: real time    0.9645
    ORTHCH:  cpu time    0.0991: real time    0.0998
       DOS:  cpu time    0.0004: real time    0.0004
    CHARGE:  cpu time    0.0435: real time    0.0437
    MIXING:  cpu time    0.0021: real time    0.0021
    --------------------------------------------
      LOOP:  cpu time    1.5222: real time    1.5373

 eigenvalue-minimisations  :  1412
 total energy-change (2. order) :-0.9030124E-03  (-0.1343966E-03)
 number of electron     400.0000073 magnetization       0.8748722
 augmentation part      -23.8062657 magnetization      -0.0624410

 Broyden mixing:
  rms(total) = 0.97489E-02    rms(broyden)= 0.97470E-02
  rms(prec ) = 0.11095E-01
  weight for this iteration     100.00

 eigenvalues of (default mixing * dielectric matrix)
  average eigenvalue GAMMA=   1.4146
  3.6972  2.1221  2.1221  1.1658  0.9722  0.8331  0.6339  0.6339  0.5509

 Free energy of the ion-electron system (eV)
  ---------------------------------------------------
  alpha Z        PSCENC =       316.14514549
  Ewald energy   TEWEN  =    -14824.37750498
  -Hartree energ DENC   =      -197.76533855
  -exchange      EXHF   =         0.00000000
  -V(xc)+E(xc)   XCENC  =      -766.75773707
  PAW double counting   =     91952.93052164   -90209.97186715
  entropy T*S    EENTRO =        -0.06451169
  eigenvalues    EBANDS =      3021.22283973
  atomic energy  EATOM  =     10306.12861560
  Solvation  Ediel_sol  =         0.00000000
  ---------------------------------------------------
  free energy    TOTEN  =      -402.50983700 eV

  energy without entropy =     -402.44532531  energy(sigma->0) =     -402.47758115


--------------------------------------------------------------------------------------------------------




--------------------------------------- Iteration      1(  22)  ---------------------------------------


    POTLOK:  cpu time    0.0525: real time    0.0531
    SETDIJ:  cpu time    0.0349: real time    0.0350
    EDDIAG:  cpu time    0.3388: real time    0.3406
  RMM-DIIS:  cpu time    0.9070: real time    0.9184
    ORTHCH:  cpu time    0.0987: real time    0.0993
       DOS:  cpu time    0.0004: real time    0.0004
    CHARGE:  cpu time    0.0435: real time    0.0437
    MIXING:  cpu time    0.0023: real time    0.0023
    --------------------------------------------
      LOOP:  cpu time    1.4781: real time    1.4929

 eigenvalue-minimisations  :  1407
 total energy-change (2. order) :-0.5127282E-03  (-0.7615210E-04)
[...]
   0.665E+01 0.195E+01 -.756E+01   -.626E+01 -.306E+01 0.543E+01   0.132E+00 0.176E+01 0.448E+01   0.126E-02 -.584E-03 0.871E-04
   0.291E+02 -.179E+02 -.175E+02   -.284E+02 0.162E+02 0.181E+02   -.439E+01 0.535E+01 -.562E+00   0.163E-02 0.527E-03 -.203E-04
   -.760E+01 0.204E+01 0.301E+02   0.651E+01 0.510E-01 -.283E+02   0.211E+01 -.377E+01 -.467E+01   0.155E-02 0.652E-03 -.273E-04
   0.600E+01 0.205E+02 -.206E+00   -.440E+01 -.185E+02 -.129E+01   -.289E+01 -.410E+01 0.233E+01   0.143E-02 -.381E-03 0.142E-03
   -.257E+02 0.230E+02 -.137E+02   0.218E+02 -.200E+02 0.135E+02   0.847E+01 -.674E+01 0.186E+01   0.769E-03 0.501E-03 -.138E-03
   -.186E+02 -.261E+00 -.491E+01   0.181E+02 0.207E+01 0.461E+01   0.206E+01 -.246E+01 0.158E-01   0.138E-02 -.436E-03 0.663E-04
   0.118E+02 0.232E+02 0.147E+02   -.110E+02 -.208E+02 -.145E+02   -.196E+01 -.532E+01 -.637E+00   -.145E-03 -.317E-03 -.500E-04
   0.504E-01 0.219E+01 -.109E+02   0.264E+01 -.134E+01 0.880E+01   -.404E+01 -.292E+01 0.371E+01   0.164E-02 0.522E-03 0.165E-03
   -.203E+02 -.221E+02 -.386E+02   0.195E+02 0.230E+02 0.355E+02   0.256E+01 -.721E-01 0.704E+01   0.153E-02 0.157E-03 0.608E-04
   -.683E+01 -.523E+01 -.986E+01   0.725E+01 0.580E+01 0.878E+01   -.152E+00 -.267E+00 0.193E+01   0.301E-03 0.410E-03 0.370E-03
   -.683E+01 -.317E+02 0.215E+02   0.744E+01 0.297E+02 -.210E+02   -.604E+00 0.451E+01 -.127E+01   0.145E-02 0.926E-04 -.746E-04
   -.231E+02 -.321E+02 -.160E+02   0.229E+02 0.304E+02 0.153E+02   0.126E+01 0.294E+01 0.180E+01   0.136E-02 -.319E-03 -.741E-04
   0.145E+02 0.133E+02 0.152E+02   -.139E+02 -.127E+02 -.143E+02   -.218E+01 -.493E-01 -.149E+01   -.106E-02 -.120E-03 -.319E-04
   -.279E+01 0.706E+01 -.805E+01   0.790E+00 -.469E+01 0.762E+01   0.248E+01 -.425E+01 -.384E-01   0.223E-03 -.484E-03 -.163E-03
   -.595E+01 0.303E+02 -.107E+02   0.584E+01 -.301E+02 0.140E+02   0.119E+01 -.941E+00 -.545E+01   0.121E-02 0.650E-04 -.962E-06
   -.285E+01 -.635E+01 0.210E+02   0.344E+01 0.645E+01 -.203E+02   -.562E+00 -.577E+00 -.146E+01   0.333E-04 0.140E-05 0.760E-04
   0.182E+02 0.181E+02 0.612E+01   -.179E+02 -.169E+02 -.478E+01   -.151E+01 -.359E+01 -.320E+01   -.112E-02 0.321E-03 0.192E-03
   -.125E+01 -.290E+02 -.600E+01   0.322E+01 0.302E+02 0.648E+01   -.302E+01 0.983E+00 -.300E+00   0.659E-03 -.196E-03 -.463E-04
   0.137E+02 0.133E+02 -.361E+01   -.117E+02 -.136E+02 0.247E+01   -.412E+01 0.437E+00 0.300E+01   0.855E-03 0.576E-03 0.194E-03
   -.158E+01 -.270E+01 -.368E+01   0.170E+00 0.418E+01 0.172E+01   0.364E+01 -.264E+01 0.367E+01   -.161E-02 0.122E-03 0.219E-03
   0.459E+01 0.982E+01 0.206E+02   -.441E+01 -.124E+02 -.196E+02   -.745E+00 0.321E+01 -.215E+01   0.850E-03 0.429E-03 0.910E-04
   -.258E+01 -.142E+02 -.769E+01   0.235E+01 0.154E+02 0.712E+01   0.120E+01 -.960E+00 0.316E+00   -.104E-02 -.212E-03 -.925E-04
   -.123E+02 0.186E+02 -.261E+02   0.112E+02 -.179E+02 0.264E+02   0.227E+01 -.176E+01 0.728E+00   -.250E-03 -.165E-03 -.718E-04
   -.273E+02 0.132E+01 0.448E+01   0.262E+02 -.247E+00 -.260E+01   0.299E+01 -.238E+01 -.237E+01   -.123E-02 0.222E-03 0.237E-03
   0.138E+02 0.240E+02 0.145E+02   -.134E+02 -.230E+02 -.148E+02   -.212E+01 -.206E+01 -.228E+00   0.123E-02 -.324E-03 -.452E-05
   -.143E+02 0.203E+02 0.217E+02   0.135E+02 -.172E+02 -.213E+02   0.200E+01 -.571E+01 -.163E+01   -.332E-03 0.487E-03 -.161E-03
   0.662E+01 -.409E+01 0.139E+02   -.782E+01 0.363E+01 -.145E+02   0.131E+01 0.145E+01 0.123E+01   0.157E-02 0.426E-03 -.230E-03
   -.159E+02 -.237E+02 0.865E+00   0.151E+02 0.209E+02 -.582E+00   0.289E+01 0.512E+01 0.770E+00   0.729E-03 0.149E-03 -.141E-03
   0.245E+02 -.206E+00 -.382E+01   -.235E+02 -.112E+01 0.322E+01   -.293E+01 0.232E+01 0.157E+01   0.163E-02 0.261E-03 -.514E-04
   0.143E+02 0.284E+02 0.916E+00   -.131E+02 -.268E+02 0.901E+00   -.336E+01 -.363E+01 -.251E+01   0.128E-02 -.118E-03 -.181E-03
   0.264E+02 0.163E+02 -.402E+01   -.245E+02 -.170E+02 0.646E+01   -.592E+01 0.505E+00 -.438E+01   -.765E-03 0.436E-03 -.181E-04
   0.131E+01 0.781E+01 -.559E-01   -.172E+01 -.106E+02 -.295E+00   0.222E+01 0.405E+01 0.750E+00   0.159E-02 0.125E-03 0.294E-03
   -.147E+01 -.130E+02 0.773E+01   0.254E+00 0.123E+02 -.101E+02   0.164E+01 0.216E+01 0.405E+01   0.445E-03 0.518E-03 -.286E-04
   0.108E+02 -.192E+02 -.166E+02   -.103E+02 0.176E+02 0.158E+02   -.122E+01 0.330E+01 0.254E+01   -.991E-03 -.293E-03 -.138E-03
   0.203E+02 0.162E+02 -.274E+01   -.187E+02 -.142E+02 0.492E+01   -.371E+01 -.317E+01 -.387E+01   0.166E-02 0.462E-03 -.806E-04
   0.111E+02 -.874E+01 -.172E+02   -.105E+02 0.616E+01 0.160E+02   -.131E+01 0.451E+01 0.194E+01   -.361E-03 -.174E-03 0.311E-04
   -.254E+02 0.569E+00 -.208E+02   0.235E+02 0.745E-01 0.183E+02   0.372E+01 -.444E+00 0.275E+01   -.899E-03 0.161E-03 0.174E-03
   0.112E+02 0.185E+02 0.863E+01   -.106E+02 -.170E+02 -.837E+01   -.149E+01 -.406E+01 -.223E+00   -.139E-02 -.263E-03 -.456E-04
   0.880E+01 0.140E+01 0.565E+00   -.910E+01 -.193E+00 -.487E+00   0.270E+00 -.342E+01 0.316E+00   -.576E-03 -.440E-04 -.194E-03
   -.182E+02 -.256E+02 0.869E+01   0.177E+02 0.223E+02 -.944E+01   0.181E+01 0.581E+01 0.152E+01   0.764E-03 -.534E-03 0.931E-04
   0.317E+01 -.752E+01 0.187E+02   -.884E+00 0.516E+01 -.192E+02   -.383E+01 0.405E+01 -.978E+00   0.167E-02 0.632E-03 -.494E-04
   -.858E+01 -.568E+01 0.194E+02   0.595E+01 0.780E+01 -.184E+02   0.475E+01 -.357E+01 -.297E+01   -.149E-02 0.219E-03 -.106E-03
   -.132E+01 0.245E+02 0.285E+01   -.237E+00 -.238E+02 -.363E+01   0.307E+01 -.301E+01 0.163E+01   0.972E-03 -.212E-04 0.156E-05
   -.131E+02 0.692E+01 0.266E+02   0.128E+02 -.850E+01 -.249E+02   0.975E+00 0.262E+01 -.429E+01   -.948E-03 0.169E-03 -.101E-03
   -.564E+01 0.286E+02 0.121E+02   0.453E+01 -.263E+02 -.125E+02   0.286E+01 -.502E+01 -.118E+00   0.146E-02 -.416E-03 -.106E-04
   0.209E+01 -.466E+01 0.874E+00   -.212E+01 0.222E+01 -.338E-01   0.304E+00 0.314E+01 -.177E+01   -.553E-04 -.428E-03 -.106E-03
   0.134E+02 -.136E+02 0.264E+01   -.110E+02 0.136E+02 -.218E+01   -.387E+01 0.110E+01 -.867E+00   -.101E-02 0.551E-03 -.297E-03
   -.259E+02 0.830E+01 -.263E+02   0.270E+02 -.786E+01 0.251E+02   -.149E+01 0.584E-01 0.380E+01   -.556E-03 0.589E-03 -.722E-04
   0.113E+01 0.555E+00 -.247E+02   0.249E+00 -.609E+00 0.240E+02   -.954E+00 -.141E+00 0.231E+01   -.129E-02 -.233E-03 -.445E-04
   0.796E+01 0.400E+02 0.147E+01   -.798E+01 -.372E+02 -.244E+01   0.410E+00 -.652E+01 0.176E+01   -.285E-03 -.126E-03 0.954E-05
   0.236E+02 0.152E+02 0.145E+02   -.240E+02 -.146E+02 -.129E+02   -.254E+01 -.108E+01 -.171E+01   0.112E-02 0.145E-03 0.103E-03
   0.366E+01 0.542E+01 -.454E+01   -.292E+01 -.719E+01 0.570E+01   -.151E+01 0.228E+01 -.171E+01   -.114E-02 -.312E-03 0.177E-03
   -.218E+01 -.161E+02 -.531E+00   -.121E+01 0.160E+02 -.196E+00   0.526E+01 0.110E+01 0.151E+01   0.775E-03 -.495E-03 0.226E-04
   -.111E+02 -.205E+02 -.180E+01   0.104E+02 0.190E+02 0.128E+01   0.215E+01 0.333E+01 0.150E+01   -.126E-02 0.164E-03 0.146E-03
   -.150E+02 -.305E+01 0.342E+02   0.134E+02 0.325E+01 -.324E+02   0.311E+01 0.765E+00 -.491E+01   -.178E-02 0.108E-03 -.189E-03
   0.141E+02 -.170E+02 -.113E+02   -.119E+02 0.176E+02 0.113E+02   -.522E+01 -.119E+01 -.101E+00   -.226E-03 -.333E-03 0.138E-03
   0.874E+01 0.220E+02 0.251E+01   -.780E+01 -.196E+02 -.241E+01   -.246E+01 -.448E+01 -.739E+00   0.462E-03 -.457E-03 0.284E-03
   0.188E+02 -.213E+02 -.168E+01   -.163E+02 0.200E+02 0.460E+00   -.444E+01 0.307E+01 0.149E+01   -.139E-02 -.510E-03 -.656E-04
   -.669E+01 0.215E+01 0.419E+01   0.493E+01 -.342E+01 -.460E+01   0.302E+01 0.253E+01 0.379E+00   -.439E-03 0.223E-03 -.280E-03
   0.167E+02 -.182E+02 0.168E+02   -.166E+02 0.183E+02 -.150E+02   -.604E+00 0.126E+01 -.299E+01   -.346E-03 0.289E-03 0.152E-03
   0.949E+00 0.723E+00 -.166E+02   -.621E+00 -.884E+00 0.156E+02   0.507E+00 -.649E+00 0.252E+01   -.140E-02 0.592E-05 0.335E-04
   0.116E+02 -.386E+01 0.166E+02   -.895E+01 0.327E+01 -.153E+02   -.460E+01 0.796E+00 -.305E+01   -.118E-02 -.215E-03 -.394E-03
   -.187E+02 0.116E+02 0.163E+02   0.186E+02 -.102E+02 -.159E+02   0.102E+01 -.204E+01 -.181E+01   -.304E-03 -.614E-03 0.302E-03
   -.655E+01 0.187E+02 0.640E+01   0.674E+01 -.172E+02 -.798E+01   0.717E+00 -.307E+01 0.128E+01   -.177E-02 0.370E-03 -.327E-03
   -.230E+02 -.848E+01 -.122E+02   0.212E+02 0.731E+01 0.119E+02   0.283E+01 0.190E+01 0.313E+00   0.120E-02 -.661E-03 -.110E-03
   -.138E+02 0.245E+02 -.184E+02   0.127E+02 -.225E+02 0.167E+02   0.390E+01 -.544E+01 0.361E+01   0.926E-03 0.472E-03 -.420E-04
   -.122E+02 -.226E+02 -.895E+01   0.112E+02 0.211E+02 0.803E+01   0.183E+01 0.326E+01 0.139E+01   0.768E-03 0.361E-03 0.141E-04
   -.751E-01 0.920E+01 -.161E+02   0.111E+01 -.943E+01 0.146E+02   -.149E+01 0.234E-01 0.469E+01   -.135E-02 -.388E-03 0.218E-03
   0.141E+02 0.297E+01 0.118E+02   -.132E+02 -.427E+01 -.108E+02   -.219E+01 0.336E+01 -.145E+01   -.179E-03 -.438E-03 0.629E-04
   -.200E+02 -.113E+02 0.172E+02   0.176E+02 0.105E+02 -.172E+02   0.432E+01 0.998E+00 -.488E+00   0.109E-02 -.465E-03 -.195E-04
   0.296E+02 -.666E+00 0.316E+00   -.276E+02 0.193E+01 0.190E+01   -.365E+01 -.206E+01 -.350E+01   -.106E-02 0.110E-03 0.185E-03
 -----------------------------------------------------------------------------------------------
   0.471E+01 0.697E+01 -.201E+01   -.107E-12 0.296E-12 0.833E-13   -.471E+01 -.697E+01 0.201E+01   0.385E-03 0.137E-02 0.308E-03
 
 
 POSITION                                       TOTAL-FORCE (eV/Angst)
 -----------------------------------------------------------------------------------
     10.12632      7.39255      0.16439         1.598221      2.429712     -1.369335
      5.83625      7.49771      5.17957        -0.075968     -0.331073     -0.405058
      0.35296      0.03729      7.30357        -2.101043      3.579883     -1.478219
      9.99497      1.76567      8.71482         3.299008      3.361963     -1.771990
      3.34404      0.12394      6.43083        -1.869684      0.566677     -0.723855
      4.45791      8.15376      7.00690         2.513181      3.382447      0.958985
      3.60238      6.07705      5.15620        -0.157685      3.076963     -0.574726
      4.56309      4.79190      8.87707        -0.258577     -0.151015      1.318693
      6.98011      7.63290      1.98912         0.321526      0.719482      2.236933
      4.55028      0.45062      0.12996        -1.708382     -2.414473      2.747264
     10.19092      1.56052      5.59108        -1.611533     -2.353405     -0.398024
      3.53424      9.06222      1.65560         0.849681      0.644497      0.129038
      0.44313      4.25856      2.57366        -1.002765      0.189243     -1.645640
      2.38204      4.02175      0.87673         0.685405      1.457509      2.766049
      9.98078      2.04507      3.29367        -1.709644      2.839228     -1.124234
     10.00029      5.20935      0.02534         0.137205     -2.191550      0.309717
      0.90805      0.27993      3.56612         0.549067     -3.163399      1.163696
      1.26985      4.15860      8.73994        -3.278485      1.931100     -0.747034
      6.33372      3.19722      2.58312        -2.165372      2.657886     -1.001877
      6.80013      4.99680      5.19029        -2.624715      1.415033      0.817543
      7.16334      2.98980      8.71972         0.441308     -3.518690     -2.405386
      1.23960      9.15289      5.72738        -0.170964      0.731029     -2.947561
      4.00158      8.28523      9.17456         0.396669      1.027534     -0.668769
      6.34605      1.76936      0.71972        -0.460251      0.907951     -1.216245
      7.01920     10.09559      1.33635         1.044272     -3.016007      1.930541
      4.49539      4.27657      4.80256         2.328408     -3.198767     -0.574781
      2.08895      1.88797      2.54074         0.869310      0.980857     -1.930497
      2.13526      1.68973      4.86232         0.595427     -0.608014      3.022455
      2.23243      0.86814      0.39290         1.356198     -0.766106      0.441258
      8.79000      5.14502      6.06532         0.523661      0.646392      2.352221
      8.76070      0.13041      3.32153        -3.709665      3.628320      0.064563
      8.30354      0.69033      7.89070         1.015555     -1.678522     -2.943876
      8.49984      6.30172      4.08575        -1.292995     -2.152366      0.833106
      6.52325      1.31959      3.54408         4.504535     -3.779112      1.711587
      8.05533      3.77595      3.74768         1.573727     -0.646760     -0.291286
      1.03305      6.00068      4.28908        -1.070924     -2.853699     -0.444470
      8.68715      0.82016     10.05909        -1.350934     -2.074663      1.636796
      8.25060      1.97950      1.70451         1.753914      0.851862      3.926579
      0.45916      9.75885      9.64537         0.263668      0.306623      0.848816
      8.36866      2.51485      6.65153         0.013856      2.523560     -0.808092
      8.82088      3.15939     10.16307         1.110991      1.289945      1.148494
      1.92217      7.06620      6.18515        -1.642207      0.555497     -0.646863
      6.24689      5.75398      3.07185         0.480990     -1.881483     -0.469042
      9.49865      6.81473      2.33435         1.080048     -0.785040     -2.142944
      5.59648      3.75321      7.04634         0.030395     -0.474598     -0.833577
      4.51274      0.34177      8.26515        -1.184837     -2.384819     -1.849491
      6.60824      3.89934      0.39565        -1.044449      2.133967      0.173769
      6.61617      0.46915      9.10495        -2.089363      0.118557      1.861253
      2.81022      2.84389      9.13802         2.234226     -1.164285      1.708676
      6.64341      9.34625      7.34361        -0.558520      0.605454     -1.146244
      4.54814      4.84128      1.36001         0.973254      0.200175     -0.254046
      1.42970      6.40292      1.56448         1.127165     -1.043081      1.017522
      2.04450      8.95186      7.98097         1.813251     -1.310179     -0.497110
      8.98290      6.44779      8.28809        -1.632637     -1.017943     -0.527905
      5.38836     10.03325      5.47422         1.188097     -2.600377     -1.204451
      8.92309      9.20794      6.04692         0.111131      0.988721      0.704503
      6.44268      2.70995      5.14225         2.053871      2.385179      1.052877
      7.69721      8.42327      4.08996        -1.922316      0.987355      0.974441
      8.16163      6.83373      0.30753        -2.205751     -2.032815     -0.693938
      4.91930      0.90513      2.38774        -4.023160     -0.246999     -1.940344
      8.01116      8.82035      9.45241         1.816196      1.284796      0.399923
      5.97367      1.41698      6.87702         0.424240      1.431301      1.688871
      2.08065      3.70862      4.08051        -0.734498      1.722472      1.716183
      9.12580      9.03723      1.49604        -2.041785     -1.217890     -1.684818
      5.69186      8.39211      0.38919        -0.764900      1.920080      0.731573
      1.96709      7.95434      9.97551         1.841744      0.199804      0.230496
      3.25870      4.55932      6.74167        -0.946582     -2.638379      0.036759
      1.19014      3.02704      6.68185        -0.033746     -2.208334      0.393006
      6.86303      5.08805      8.50848         1.286898      2.485851      0.774818
      7.83821      0.65244      5.39761        -1.540107      1.692942     -1.537986
      3.30116      2.38326      7.02654         2.120727     -1.449601     -1.919804
      9.76317      7.32323      5.65764         1.514514     -2.273354      0.850262
      1.89419      7.89578      3.67409         0.674378      1.036229     -2.577691
      7.53063      7.49110      6.64247         1.742358     -2.710246     -0.552029
      6.06560      6.05995      0.46133         0.273338      0.707238     -0.930058
      4.46729      1.73627      4.84482        -1.466956      1.082053     -0.406570
      1.28474      8.96786      1.55966        -0.433605      0.503871      2.652492
      3.89934      6.97785      0.87301         0.419758     -0.195540      1.687712
      1.09549      6.86988      8.23397         0.388427     -3.703164      0.790628
      9.86155      8.43424      8.07638        -2.916531     -0.470359     -0.144172
      2.66538      5.70703      9.72720        -0.768091      0.503875     -0.548426
      9.93129      3.69122      4.82756         1.880690      0.990350      0.787354
      2.01398      0.90514      8.31145         1.476472      1.774136      0.985407
      3.36048      8.46233      5.22612         1.594201      0.963513     -3.151131
      0.84365      2.69111      0.50228        -3.026616     -0.568121     -0.038094
      6.41672      7.54501      8.70145        -1.522546     -2.068553     -0.630556
      3.16234      5.33181      2.94689        -1.875017      1.758373      0.272144
      5.43990      9.07805      3.32750         1.258768      1.260455     -0.032428
      5.05515      2.37465      8.99774        -0.435613      1.351017     -1.279326
      3.95307      3.17872      2.91228         0.833613     -0.809540      1.464892
      4.56106      7.10653      3.33886        -1.951249      0.202705     -1.827330
      5.51269      6.13126      7.06009         0.966754     -0.669660     -1.406481
      3.16928      0.06988      3.64206         0.912197     -1.563392     -0.300789
      8.17122      4.80049      1.74012         1.084501      0.724678     -0.022694
      9.88148      8.65191      3.59450         2.754759     -3.436467      1.930986
      0.09979      0.67153      1.40407         0.756917      1.810432      0.466709
      3.40165      6.45727      7.68394        -0.455936     -0.208819      3.194528
      0.87447      5.10054      6.63925        -1.229121      2.059477     -0.484277
      9.00032      4.15814      8.15401         1.903527      0.238145     -0.472614
      4.36009      2.70327      0.87187        -1.696473     -0.793736     -1.287935
 -----------------------------------------------------------------------------------
    total drift:                                0.005905      0.000382     -0.007346


--------------------------------------------------------------------------------------------------------



  FREE ENERGIE OF THE ION-ELECTRON SYSTEM (eV)
  ---------------------------------------------------
  free  energy   TOTEN  =      -402.51111929 eV

  energy  without entropy=     -402.44051181  energy(sigma->0) =     -402.47581555
 


--------------------------------------------------------------------------------------------------------


    POTLOK:  cpu time    0.0894: real time    0.0897


--------------------------------------------------------------------------------------------------------


     LOOP+:  cpu time   38.0255: real time   38.6659
    4ORBIT:  cpu time    0.0000: real time    0.0000

 total amount of memory used by VASP MPI-rank0    53946. kBytes
=======================================================================

   base      :      30000. kBytes
   nonlr-proj:       8278. kBytes
   fftplans  :       1377. kBytes
   grid      :       7520. kBytes
   one-center:        614. kBytes
   wavefun   :       6157. kBytes
 
  
  
 General timing and accounting informations for this job:
 ========================================================
  
                  Total CPU time used (sec):       39.138
                            User time (sec):       37.606
                          System time (sec):        1.532
                         Elapsed time (sec):       41.384
  
                   Maximum memory used (kb):      174656.
                   Average memory used (kb):           0.
  
                          Minor page faults:       111287
                          Major page faults:            0
                 Voluntary context switches:          887
