BEGIN_CFG
 Size
    100
 Supercell
        10.211495      0.000000      0.000000
         0.000000     10.211495      0.000000
         0.000000      0.000000     10.211495
 AtomData:  id type       cartes_x      cartes_y      cartes_z           fx          fy          fz
             1    0      10.126320      7.392550      0.164390     1.598221    2.429712   -1.369335
             2    0       5.836250      7.497710      5.179570    -0.075968   -0.331073   -0.405058
             3    0       0.352960      0.037290      7.303570    -2.101043    3.579883   -1.478219
             4    0       9.994970      1.765670      8.714820     3.299008    3.361963   -1.771990
             5    0       3.344040      0.123940      6.430830    -1.869684    0.566677   -0.723855
             6    0       4.457910      8.153760      7.006900     2.513181    3.382447    0.958985
             7    0       3.602380      6.077050      5.156200    -0.157685    3.076963   -0.574726
             8    0       4.563090      4.791900      8.877070    -0.258577   -0.151015    1.318693
             9    0       6.980110      7.632900      1.989120     0.321526    0.719482    2.236933
            10    0       4.550280      0.450620      0.129960    -1.708382   -2.414473    2.747264
            11    0      10.190920      1.560520      5.591080    -1.611533   -2.353405   -0.398024
            12    0       3.534240      9.062220      1.655600     0.849681    0.644497    0.129038
            13    0       0.443130      4.258560      2.573660    -1.002765    0.189243   -1.645640
            14    0       2.382040      4.021750      0.876730     0.685405    1.457509    2.766049
            15    0       9.980780      2.045070      3.293670    -1.709644    2.839228   -1.124234
            16    0      10.000290      5.209350      0.025340     0.137205   -2.191550    0.309717
            17    0       0.908050      0.279930      3.566120     0.549067   -3.163399    1.163696
            18    0       1.269850      4.158600      8.739940    -3.278485    1.931100   -0.747034
            19    0       6.333720      3.197220      2.583120    -2.165372    2.657886   -1.001877
            20    0       6.800130      4.996800      5.190290    -2.624715    1.415033    0.817543
            21    0       7.163340      2.989800      8.719720     0.441308   -3.518690   -2.405386
            22    0       1.239600      9.152890      5.727380    -0.170964    0.731029   -2.947561
            23    0       4.001580      8.285230      9.174560     0.396669    1.027534   -0.668769
            24    0       6.346050      1.769360      0.719720    -0.460251    0.907951   -1.216245
            25    0       7.019200     10.095590      1.336350     1.044272   -3.016007    1.930541
            26    0       4.495390      4.276570      4.802560     2.328408   -3.198767   -0.574781
            27    0       2.088950      1.887970      2.540740     0.869310    0.980857   -1.930497
            28    0       2.135260      1.689730      4.862320     0.595427   -0.608014    3.022455
            29    0       2.232430      0.868140      0.392900     1.356198   -0.766106    0.441258
            30    0       8.790000      5.145020      6.065320     0.523661    0.646392    2.352221
            31    0       8.760700      0.130410      3.321530    -3.709665    3.628320    0.064563
            32    0       8.303540      0.690330      7.890700     1.015555   -1.678522   -2.943876
            33    0       8.499840      6.301720      4.085750    -1.292995   -2.152366    0.833106
            34    0       6.523250      1.319590      3.544080     4.504535   -3.779112    1.711587
            35    0       8.055330      3.775950      3.747680     1.573727   -0.646760   -0.291286
            36    0       1.033050      6.000680      4.289080    -1.070924   -2.853699   -0.444470
            37    0       8.687150      0.820160     10.059090    -1.350934   -2.074663    1.636796
            38    0       8.250600      1.979500      1.704510     1.753914    0.851862    3.926579
            39    0       0.459160      9.758850      9.645370     0.263668    0.306623    0.848816
            40    0       8.368660      2.514850      6.651530     0.013856    2.523560   -0.808092
            41    0       8.820880      3.159390     10.163070     1.110991    1.289945    1.148494
            42    0       1.922170      7.066200      6.185150    -1.642207    0.555497   -0.646863
            43    0       6.246890      5.753980      3.071850     0.480990   -1.881483   -0.469042
            44    0       9.498650      6.814730      2.334350     1.080048   -0.785040   -2.142944
            45    0       5.596480      3.753210      7.046340     0.030395   -0.474598   -0.833577
            46    0       4.512740      0.341770      8.265150    -1.184837   -2.384819   -1.849491
            47    0       6.608240      3.899340      0.395650    -1.044449    2.133967    0.173769
            48    0       6.616170      0.469150      9.104950    -2.089363    0.118557    1.861253
            49    0       2.810220      2.843890      9.138020     2.234226   -1.164285    1.708676
            50    0       6.643410      9.346250      7.343610    -0.558520    0.605454   -1.146244
            51    0       4.548140      4.841280      1.360010     0.973254    0.200175   -0.254046
            52    0       1.429700      6.402920      1.564480     1.127165   -1.043081    1.017522
            53    0       2.044500      8.951860      7.980970     1.813251   -1.310179   -0.497110
            54    0       8.982900      6.447790      8.288090    -1.632637   -1.017943   -0.527905
            55    0       5.388360     10.033250      5.474220     1.188097   -2.600377   -1.204451
            56    0       8.923090      9.207940      6.046920     0.111131    0.988721    0.704503
            57    0       6.442680      2.709950      5.142250     2.053871    2.385179    1.052877
            58    0       7.697210      8.423270      4.089960    -1.922316    0.987355    0.974441
            59    0       8.161630      6.833730      0.307530    -2.205751   -2.032815   -0.693938
            60    0       4.919300      0.905130      2.387740    -4.023160   -0.246999   -1.940344
            61    0       8.011160      8.820350      9.452410     1.816196    1.284796    0.399923
            62    0       5.973670      1.416980      6.877020     0.424240    1.431301    1.688871
            63    0       2.080650      3.708620      4.080510    -0.734498    1.722472    1.716183
            64    0       9.125800      9.037230      1.496040    -2.041785   -1.217890   -1.684818
            65    0       5.691860      8.392110      0.389190    -0.764900    1.920080    0.731573
            66    0       1.967090      7.954340      9.975510     1.841744    0.199804    0.230496
            67    0       3.258700      4.559320      6.741670    -0.946582   -2.638379    0.036759
            68    0       1.190140      3.027040      6.681850    -0.033746   -2.208334    0.393006
            69    0       6.863030      5.088050      8.508480     1.286898    2.485851    0.774818
            70    0       7.838210      0.652440      5.397610    -1.540107    1.692942   -1.537986
            71    0       3.301160      2.383260      7.026540     2.120727   -1.449601   -1.919804
            72    0       9.763170      7.323230      5.657640     1.514514   -2.273354    0.850262
            73    0       1.894190      7.895780      3.674090     0.674378    1.036229   -2.577691
            74    0       7.530630      7.491100      6.642470     1.742358   -2.710246   -0.552029
            75    0       6.065600      6.059950      0.461330     0.273338    0.707238   -0.930058
            76    0       4.467290      1.736270      4.844820    -1.466956    1.082053   -0.406570
            77    0       1.284740      8.967860      1.559660    -0.433605    0.503871    2.652492
            78    0       3.899340      6.977850      0.873010     0.419758   -0.195540    1.687712
            79    0       1.095490      6.869880      8.233970     0.388427   -3.703164    0.790628
            80    0       9.861550      8.434240      8.076380    -2.916531   -0.470359   -0.144172
            81    0       2.665380      5.707030      9.727200    -0.768091    0.503875   -0.548426
            82    0       9.931290      3.691220      4.827560     1.880690    0.990350    0.787354
            83    0       2.013980      0.905140      8.311450     1.476472    1.774136    0.985407
            84    0       3.360480      8.462330      5.226120     1.594201    0.963513   -3.151131
            85    0       0.843650      2.691110      0.502280    -3.026616   -0.568121   -0.038094
            86    0       6.416720      7.545010      8.701450    -1.522546   -2.068553   -0.630556
            87    0       3.162340      5.331810      2.946890    -1.875017    1.758373    0.272144
            88    0       5.439900      9.078050      3.327500     1.258768    1.260455   -0.032428
            89    0       5.055150      2.374650      8.997740    -0.435613    1.351017   -1.279326
            90    0       3.953070      3.178720      2.912280     0.833613   -0.809540    1.464892
            91    0       4.561060      7.106530      3.338860    -1.951249    0.202705   -1.827330
            92    0       5.512690      6.131260      7.060090     0.966754   -0.669660   -1.406481
            93    0       3.169280      0.069880      3.642060     0.912197   -1.563392   -0.300789
            94    0       8.171220      4.800490      1.740120     1.084501    0.724678   -0.022694
            95    0       9.881480      8.651910      3.594500     2.754759   -3.436467    1.930986
            96    0       0.099790      0.671530      1.404070     0.756917    1.810432    0.466709
            97    0       3.401650      6.457270      7.683940    -0.455936   -0.208819    3.194528
            98    0       0.874470      5.100540      6.639250    -1.229121    2.059477   -0.484277
            99    0       9.000320      4.158140      8.154010     1.903527    0.238145   -0.472614
           100    0       4.360090      2.703270      0.871870    -1.696473   -0.793736   -1.287935
 Energy
       -402.511119290000
 PlusStress:  xx          yy          zz          yz          xz          xy
       463.08447   511.38713   467.00961     8.69340     6.95351     9.70732
 Feature   EFS_by	VASP
END_CFG

