unknown system                          
           1
    10.211495    0.000000    0.000000
     0.000000   10.211495    0.000000
     0.000000    0.000000   10.211495
   Si
 100
Direct configuration=     1
   0.99165900  0.72394400  0.01609870
   0.57153700  0.73424200  0.50722900
   0.03456470  0.00365210  0.71523000
   0.97879600  0.17291000  0.85343200
   0.32747800  0.01213730  0.62976400
   0.43655800  0.79848800  0.68617800
   0.35277700  0.59511900  0.50494100
   0.44685800  0.46926500  0.86932100
   0.68355400  0.74748100  0.19479200
   0.44560400  0.04412890  0.01272730
   0.99798500  0.15282000  0.54752800
   0.34610400  0.88745300  0.16213100
   0.04339570  0.41703600  0.25203600
   0.23327000  0.39384500  0.08585720
   0.97740600  0.20027100  0.32254500
   0.97931700  0.51014600  0.00248166
   0.08892400  0.02741290  0.34922600
   0.12435500  0.40724700  0.85589200
   0.62025400  0.31310000  0.25296200
   0.66592900  0.48933100  0.50827900
   0.70149800  0.29278800  0.85391200
   0.12139300  0.89633200  0.56087600
   0.39187000  0.81136300  0.89845400
   0.62146100  0.17327100  0.07048150
   0.68738200  0.98865000  0.13086700
   0.44022800  0.41880000  0.47030900
   0.20456800  0.18488700  0.24881200
   0.20910400  0.16547300  0.47616100
   0.21861900  0.08501620  0.03847670
   0.86079500  0.50384600  0.59397000
   0.85792500  0.01277080  0.32527400
   0.81315600  0.06760370  0.77272700
   0.83238000  0.61712000  0.40011300
   0.63881400  0.12922600  0.34706800
   0.78884900  0.36977400  0.36700600
   0.10116500  0.58764000  0.42002500
   0.85072300  0.08031750  0.98507500
   0.80797200  0.19385000  0.16692100
   0.04496500  0.95567300  0.94456000
   0.81953300  0.24627600  0.65137700
   0.86381900  0.30939500  0.99525800
   0.18823600  0.69198500  0.60570500
   0.61175100  0.56348100  0.30082300
   0.93019200  0.66735900  0.22860000
   0.54805700  0.36754800  0.69004000
   0.44192700  0.03346870  0.80939700
   0.64713700  0.38185800  0.03874590
   0.64791400  0.04594290  0.89163700
   0.27520200  0.27849900  0.89487600
   0.65058200  0.91526800  0.71915100
   0.44539400  0.47410100  0.13318400
   0.14000900  0.62703100  0.15320800
   0.20021600  0.87664500  0.78156700
   0.87968500  0.63142500  0.81164300
   0.52767600  0.98254500  0.53608400
   0.87382800  0.90172300  0.59216800
   0.63092400  0.26538200  0.50357500
   0.75377900  0.82488100  0.40052500
   0.79925900  0.66921900  0.03011570
   0.48174100  0.08863870  0.23382900
   0.78452400  0.86376700  0.92566400
   0.58499500  0.13876300  0.67345900
   0.20375600  0.36318100  0.39960000
   0.89367900  0.88500600  0.14650500
   0.55739700  0.82183000  0.03811300
   0.19263500  0.77895900  0.97689000
   0.31912100  0.44648900  0.66020400
   0.11654900  0.29643500  0.65434600
   0.67208900  0.49826700  0.83322600
   0.76758700  0.06389260  0.52858200
   0.32327900  0.23339000  0.68810100
   0.95609600  0.71715600  0.55404600
   0.18549600  0.77322500  0.35979900
   0.73746600  0.73359500  0.65048900
   0.59399700  0.59344400  0.04517790
   0.43747700  0.17003100  0.47444800
   0.12581300  0.87821200  0.15273600
   0.38185800  0.68333300  0.08549290
   0.10728000  0.67275900  0.80634300
   0.96573000  0.82595500  0.79091100
   0.26101800  0.55888300  0.95257400
   0.97256000  0.36147700  0.47275700
   0.19722700  0.08863890  0.81393100
   0.32908800  0.82870600  0.51178800
   0.08261800  0.26353700  0.04918810
   0.62838200  0.73887400  0.85212300
   0.30968400  0.52213800  0.28858600
   0.53272300  0.88900300  0.32585800
   0.49504500  0.23254700  0.88113800
   0.38712000  0.31128800  0.28519600
   0.44665900  0.69593400  0.32697100
   0.53985100  0.60042700  0.69138700
   0.31036400  0.00684343  0.35666300
   0.80019800  0.47010600  0.17040800
   0.96768200  0.84727200  0.35200500
   0.00977212  0.06576250  0.13749900
   0.33312000  0.63235300  0.75247900
   0.08563600  0.49949000  0.65017400
   0.88139100  0.40720200  0.79851300
   0.42697900  0.26472800  0.08538080
