BEGIN_CFG
 Size
    100
 Supercell
        10.211495      0.000000      0.000000
         0.000000     10.211495      0.000000
         0.000000      0.000000     10.211495
 AtomData:  id type       cartes_x      cartes_y      cartes_z           fx          fy          fz
             1    0       8.407044      7.847711      0.943673    -0.477764   -0.898377    0.384822
             2    0       8.338108      9.190333      9.254125    -1.170895    0.476775    1.149459
             3    0       7.086850      1.431298      4.295295    -0.277044    0.579324   -1.871467
             4    0       8.049288      2.248559      8.743160    -0.805783   -0.925595   -0.229479
             5    0       3.128308     10.118204      4.132567     1.027728    0.800786    0.048642
             6    0       6.247801      8.163777      8.651877    -0.669427   -0.391181   -0.152750
             7    0       5.065668      5.904561      4.484054     0.281312   -0.313559    0.714025
             8    0       5.123271      5.576619      2.204698    -1.067567   -0.990576   -0.755361
             9    0       5.625182      9.841494      2.847431    -0.995540    1.087992   -0.580376
            10    0       0.122635     10.229834      8.970060    -0.614609    1.437184    0.271486
            11    0       1.903845      1.944847      4.517562     0.902774    0.850491    0.628431
            12    0       8.288062      4.269494      4.241598     1.437656    0.100764   -0.208633
            13    0       9.963956      2.246682      7.916763     1.656163    1.096244    0.158289
            14    0       7.871067      3.252259      6.456909     0.002724    0.473830    0.115971
            15    0       9.101442      1.873054      5.333202     0.854267    1.657152   -1.001956
            16    0       0.832004     10.153091      4.367697    -0.878989   -0.114839   -1.320751
            17    0       0.515512      0.825872      6.408906     0.071342   -1.595374    0.187443
            18    0       1.852689      2.710798     10.024250    -0.844537    1.343895    1.050691
            19    0       4.480593      2.014613      3.711999    -0.490434    0.218278   -0.159956
            20    0       6.177878      7.473191      3.062173     0.525936    1.041214   -0.380239
            21    0       5.839761      7.039336      0.476386    -0.142812   -0.626654    0.650261
            22    0      -0.008419      3.969070      6.294904    -1.886923    0.926512   -0.155226
            23    0       6.297605      2.545197     10.190995    -0.671873    0.653113    0.311408
            24    0       3.277838      6.686740      3.207302    -1.355719   -2.639207   -1.397593
            25    0       9.144285      0.795728      3.250529     0.546161   -0.034146    0.403546
            26    0       0.214451      3.833912      1.307831     1.096986   -0.799171    0.924739
            27    0       1.827884      0.468423      0.265586     0.615073   -1.110489    0.884034
            28    0       0.424142      3.615781      3.916536    -1.545852   -0.592281    0.315607
            29    0       2.981501      4.477826      0.754761    -0.390538   -0.655311    0.960323
            30    0       6.483816      0.741604      8.679390    -0.484227   -1.886981    1.705136
            31    0       6.852507      9.169763      4.660088    -0.012025   -0.270901   -0.424917
            32    0       1.865811      1.343468      8.300048     0.841102    0.223446   -0.408980
            33    0       2.317273      8.370721      0.499669    -0.973188    1.203389   -0.712391
            34    0       0.962037      5.961915      4.394907     0.184569    0.170150    1.031581
            35    0       2.408764      3.049922      2.512379     1.361419    0.939813    0.096205
            36    0       0.179259      8.166711      9.995706    -0.901967    0.344417   -0.511375
            37    0       4.191042      8.327641      1.973744     0.077145    1.118025   -0.920952
            38    0       7.515861      5.962496      2.239693    -0.659724    1.283235   -0.673706
            39    0       0.995670      1.342053      2.396398    -1.256956    0.642456   -0.425157
            40    0       4.974072      0.543877      0.666295    -0.148093   -0.000801   -2.302823
            41    0       7.949599      6.652792      9.282823    -1.319710    0.237718    1.335911
            42    0       4.272541      5.070606      6.588633     1.379332   -0.107256   -0.020113
            43    0       9.931819      9.738357      1.461290     1.156045   -0.545421   -0.729034
            44    0       9.112325      5.975058      5.836301     0.016151   -1.573528    1.096899
            45    0       4.647480      2.902749      5.821261    -1.034972   -0.494505    0.896443
            46    0       2.109590      4.926195      6.131852     0.529435   -1.998702    0.406637
            47    0       8.814228      2.655983      2.271133     0.060457    0.976553    0.322350
            48    0       6.496900      1.488123      6.421824    -0.606010    1.543240    0.759039
            49    0       4.270119      0.750198      8.338219     0.787785    0.024413    1.141922
            50    0       8.095160      0.761997      0.639075    -1.053909   -0.149248   -0.861470
            51    0       3.718590      3.031347      7.998469    -0.657333   -0.920155   -1.329821
            52    0       1.508863      5.140993      2.454414     2.244640    1.025061   -1.239300
            53    0       2.544049      9.475849      8.465458    -1.148024   -1.534620    1.268405
            54    0       9.883803      6.274013      8.322634     0.987489   -0.548995   -0.397866
            55    0       4.849008      3.310261      1.822761    -1.649494    0.622241    0.139569
            56    0       0.249585      8.562646      7.537910    -0.950093    0.394521    0.187122
            57    0       0.966729      6.641746      6.513793    -0.558044    1.020901    0.661346
            58    0       7.631542      7.171905      4.887079     0.889774   -0.889169   -1.638450
            59    0       1.176542      6.227616      0.153353     1.450295   -1.603620    0.504196
            60    0       6.351416      9.573825      6.858066     0.627280   -1.277165   -0.264383
            61    0       6.314812      9.159218      0.576478     3.106184   -0.406926   -0.048749
            62    0       3.263478      0.957348      6.328974     1.117952    0.683139   -0.953701
            63    0       6.669418      5.113703      5.938376     0.795157    0.159793    0.009960
            64    0       1.124902      7.434414      2.355112    -0.295585   -1.448538   -1.430968
            65    0       4.631502      4.718213      9.412306     0.579412   -0.950184   -0.131170
            66    0       1.919006      9.472214      2.380552     0.594754    0.454859   -0.238650
            67    0       9.523285      5.887486      2.920941     0.816540   -1.885526    0.652703
            68    0       1.793343      2.763723      6.640916     1.538056    0.750350   -0.520421
            69    0       8.263198      4.586471      8.167210     1.577884   -0.059813   -0.122127
            70    0       8.166389      7.860232      7.380163     0.825817    0.118128   -2.751728
            71    0       5.945094      3.134294      7.960166     0.455311    1.092092   -0.321913
            72    0       2.488144      4.806267      8.447811    -1.550156    1.026307    0.322232
            73    0       1.998463      7.193755      8.344478     0.213783    0.234140    1.801358
            74    0       5.931303      7.310735      6.310785    -0.884673    0.030179    0.572026
            75    0       6.561903      4.964939      0.236346     0.788180   -0.687577   -0.004760
            76    0       4.425141      8.195474      4.427826     0.912523    1.339973    1.089708
            77    0       4.274546      8.623316      9.652094     0.453096    1.213793   -0.050777
            78    0       3.193983      4.529648      4.288718     0.668074   -1.465818   -1.439525
            79    0       9.262169      5.637564      0.621673    -0.443858    1.568836    0.289136
            80    0       6.328749      5.698794      8.068902    -1.843744    0.158807    0.099279
            81    0       6.076222      3.690636      4.290860    -0.830100   -0.380087   -0.252182
            82    0       1.994624      8.090289      4.400394    -0.040010   -0.456463   -0.486083
            83    0       8.442974      0.193955      7.318834     1.370375    0.812745   -0.372732
            84    0       3.259017      7.196395      6.133824    -0.477006   -1.443012   -0.049509
            85    0       3.958565      2.343092     10.118429     1.370886    0.071984    0.544854
            86    0       6.508811      1.645637      2.053329     0.505643   -0.924905    1.341706
            87    0       3.516138      6.551906      0.429622     1.557407   -0.310998    0.310936
            88    0       8.884227      9.842139      5.119479    -1.533279    0.243724    1.095790
            89    0       4.154481      6.628274      8.296559     1.111146    0.939266   -0.007680
            90    0       7.822728      9.412285      2.432600    -2.443644    0.802034    0.144364
            91    0       5.112557      0.227708      5.040232    -1.050013    0.751558    1.601862
            92    0       6.984323      3.872779      2.284036     0.337954   -0.313130   -0.728874
            93    0       4.335937      8.817383      7.138134    -0.771734    1.191954    0.261186
            94    0       8.399806      3.662808      0.114068    -0.050480   -0.190868    1.125965
            95    0       9.329873      8.044982      3.176501    -0.035329    0.543308    0.999080
            96    0      10.029977      1.807978      0.330172    -0.330094   -0.568243   -0.896146
            97    0       0.401891      4.190491      9.262390    -1.033675    0.800471   -2.316837
            98    0      10.131642      8.144194      5.297463    -0.355940   -1.512486   -0.024950
            99    0       2.005205      9.313236      6.258228     0.671369   -0.611230    0.483190
           100    0       3.386875      1.043843      1.966179    -1.309145   -0.396940    0.766737
 Energy
       -411.945482478560
 PlusStress:  xx          yy          zz          yz          xz          xy
       470.42406   466.96440   433.38733    17.83453    -1.01270   -16.81903
 Feature   MV_grade	11.199058
END_CFG

