ITEM: TIMESTEP
0
ITEM: NUMBER OF ATOMS
100
ITEM: BOX BOUNDS xy xz yz pp pp pp
0.0000000000000000e+00 1.0211494999999999e+01 0.0000000000000000e+00
0.0000000000000000e+00 1.0211494999999999e+01 0.0000000000000000e+00
0.0000000000000000e+00 1.0211494999999999e+01 0.0000000000000000e+00
ITEM: ATOMS id type xs ys zs
1 1 0.824421 0.770977 0.0928122
2 1 0.818636 0.898819 0.903075
3 1 0.694221 0.138888 0.425562
4 1 0.791498 0.222181 0.856091
5 1 0.303212 0.988987 0.40429
6 1 0.613668 0.799947 0.847364
7 1 0.495341 0.579459 0.437023
8 1 0.503893 0.548427 0.217858
9 1 0.55209 0.962022 0.280335
10 1 0.0130815 0.998976 0.877737
11 1 0.184543 0.188612 0.440779
12 1 0.808211 0.417764 0.415688
13 1 0.971163 0.218293 0.775508
14 1 0.77081 0.317472 0.631958
15 1 0.889927 0.180483 0.524168
16 1 0.0834204 0.99426 0.430635
17 1 0.0503309 0.0841367 0.627036
18 1 0.184903 0.261634 0.979408
19 1 0.439753 0.196983 0.363798
20 1 0.603015 0.729731 0.300612
21 1 0.572029 0.690558 0.0455051
22 1 0.00390227 0.386226 0.616989
23 1 0.618163 0.248041 0.997918
24 1 0.3251 0.661782 0.317293
25 1 0.894154 0.077849 0.316811
26 1 0.0187851 0.377718 0.125543
27 1 0.177852 0.0490307 0.0236077
28 1 0.0448348 0.35537 0.382579
29 1 0.293347 0.440043 0.0712715
30 1 0.636204 0.0756469 0.846421
31 1 0.66962 0.899169 0.457174
32 1 0.181767 0.13082 0.814451
33 1 0.229585 0.816063 0.0499592
34 1 0.0944326 0.582812 0.428588
35 1 0.232787 0.296149 0.246276
36 1 0.0194301 0.798021 0.979657
37 1 0.409816 0.812703 0.19569
38 1 0.738046 0.581043 0.220938
39 1 0.100318 0.131165 0.235687
40 1 0.488405 0.0512922 0.0701497
41 1 0.781737 0.651061 0.904129
42 1 0.416045 0.496869 0.645576
43 1 0.969313 0.9547 0.144938
44 1 0.891441 0.588376 0.569387
45 1 0.45722 0.285221 0.567971
46 1 0.202608 0.490443 0.600174
47 1 0.863317 0.257458 0.22209
48 1 0.637494 0.141314 0.626924
49 1 0.41565 0.0730233 0.814096
50 1 0.79505 0.0750182 0.0644126
51 1 0.365219 0.299233 0.78697
52 1 0.143103 0.501465 0.243619
53 1 0.251184 0.93178 0.826579
54 1 0.964373 0.615802 0.816824
55 1 0.478575 0.322713 0.178612
56 1 0.026084 0.838568 0.73838
57 1 0.0995965 0.644163 0.63602
58 1 0.745669 0.703304 0.482174
59 1 0.112099 0.613451 0.0140048
60 1 0.621708 0.941605 0.671816
61 1 0.611312 0.89921 0.056713
62 1 0.317311 0.0920796 0.622198
63 1 0.651894 0.50056 0.581454
64 1 0.110752 0.731774 0.23321
65 1 0.45153 0.463529 0.921879
66 1 0.186716 0.925805 0.234351
67 1 0.930174 0.580267 0.284475
68 1 0.171323 0.268989 0.651071
69 1 0.805629 0.449968 0.800378
70 1 0.797865 0.769249 0.729309
71 1 0.581074 0.305202 0.780355
72 1 0.247619 0.468316 0.82685
73 1 0.195374 0.703774 0.813616
74 1 0.583042 0.715596 0.616345
75 1 0.641016 0.487651 0.0230885
76 1 0.430757 0.798356 0.430375
77 1 0.417829 0.842269 0.945821
78 1 0.311638 0.446165 0.422603
79 1 0.908802 0.548188 0.0605606
80 1 0.624524 0.55739 0.790094
81 1 0.59704 0.362343 0.420574
82 1 0.19602 0.793411 0.431328
83 1 0.82375 0.017453 0.717899
84 1 0.320184 0.70758 0.600911
85 1 0.382527 0.230494 0.98881
86 1 0.635944 0.163329 0.197714
87 1 0.340888 0.643074 0.0414479
88 1 0.874535 0.962105 0.499572
89 1 0.404419 0.647229 0.812542
90 1 0.772486 0.919849 0.23772
91 1 0.504512 0.0206493 0.490692
92 1 0.682768 0.380244 0.225292
93 1 0.425316 0.861065 0.698257
94 1 0.823239 0.35886 0.00870274
95 1 0.913347 0.786983 0.308456
96 1 0.982473 0.178051 0.0340532
97 1 0.04054 0.408859 0.911988
98 1 0.991285 0.802701 0.518056
99 1 0.195313 0.913428 0.611718
100 1 0.335034 0.102839 0.190579
ITEM: TIMESTEP
10000
ITEM: NUMBER OF ATOMS
100
ITEM: BOX BOUNDS xy xz yz pp pp pp
0.0000000000000000e+00 1.0211494999999999e+01 0.0000000000000000e+00
0.0000000000000000e+00 1.0211494999999999e+01 0.0000000000000000e+00
0.0000000000000000e+00 1.0211494999999999e+01 0.0000000000000000e+00
ITEM: ATOMS id type xs ys zs
1 1 0.768205 0.883119 0.844902
2 1 0.581096 0.68214 0.550859
3 1 0.472822 0.184304 0.727512
4 1 0.668239 0.0735116 0.68122
5 1 0.933466 0.019729 0.861419
6 1 0.803503 0.528042 0.56861
7 1 0.295802 0.286011 0.417154
8 1 0.0487047 0.714685 0.429103
9 1 0.226734 0.031497 0.806819
10 1 0.769954 0.139468 0.0996819
11 1 0.0768016 0.284968 0.387995
12 1 0.100058 0.122313 0.264962
13 1 0.607312 0.230652 0.929447
14 1 0.928133 0.491494 0.293366
15 1 0.696957 0.0577043 0.486206
16 1 0.265412 0.744478 0.331465
17 1 0.989785 0.384731 0.545868
18 1 0.333616 0.375872 0.050031
19 1 0.200943 0.496563 0.913773
20 1 0.441726 0.957528 0.831459
21 1 0.751308 0.642698 0.900467
22 1 0.00902931 0.428342 0.0281756
23 1 0.798754 0.29543 0.618283
24 1 0.132683 0.900287 0.938522
25 1 0.319235 0.197413 0.21536
26 1 0.133464 0.697064 0.0290059
27 1 0.893364 0.140088 0.396086
28 1 0.144975 0.251476 0.0816682
29 1 0.531012 0.631645 0.346898
30 1 0.595225 0.636587 0.102159
31 1 0.583582 0.789592 0.954154
32 1 0.463462 0.772734 0.174618
33 1 0.703038 0.761747 0.236645
34 1 0.159126 0.501107 0.465416
35 1 0.206207 0.280617 0.856352
36 1 0.652679 0.0339812 0.94226
37 1 0.104684 0.612125 0.235722
38 1 0.131406 0.932145 0.604928
39 1 0.791519 0.192404 0.827534
40 1 0.328946 0.964145 0.279371
41 1 0.837415 0.703029 0.707141
42 1 0.834713 0.683556 0.419893
43 1 0.911394 0.00275925 0.232566
44 1 0.961682 0.384458 0.75801
45 1 0.30715 0.0570239 0.468981
46 1 0.589978 0.3544 0.723133
47 1 0.934811 0.280709 0.234088
48 1 0.970454 0.231865 0.949712
49 1 0.922393 0.778419 0.977443
50 1 0.726042 0.349479 0.158086
51 1 0.698502 0.174491 0.293696
52 1 0.575062 0.857602 0.391839
53 1 0.381752 0.835208 0.489619
54 1 0.206654 0.721536 0.583691
55 1 0.164065 0.432324 0.191782
56 1 0.930422 0.845127 0.5544
57 1 0.884506 0.0663733 0.629218
58 1 0.763379 0.457103 0.767308
59 1 0.34543 0.595335 0.758226
60 1 0.333362 0.622257 0.179746
61 1 0.573896 0.453382 0.501321
62 1 0.32725 0.780543 0.960742
63 1 0.689258 0.8711 0.621403
64 1 0.978207 0.580092 0.854873
65 1 0.349932 0.501728 0.368117
66 1 0.00178106 0.846445 0.779853
67 1 0.849531 0.574454 0.101366
68 1 0.0290082 0.184268 0.738295
69 1 0.813579 0.374194 0.95777
70 1 0.92879 0.753218 0.200931
71 1 0.465436 0.97919 0.0667245
72 1 0.599806 0.443121 0.986912
73 1 0.161036 0.393896 0.693195
74 1 0.452924 0.991578 0.61896
75 1 0.475272 0.434566 0.191101
76 1 0.511006 0.0575262 0.390637
77 1 0.237769 0.0322239 0.0705431
78 1 0.588385 0.59045 0.772349
79 1 0.0107701 0.598888 0.614454
80 1 0.140872 0.69106 0.788101
81 1 0.518726 0.301693 0.33537
82 1 0.0833799 0.123893 0.528062
83 1 0.509809 0.781733 0.738232
84 1 0.421004 0.590778 0.963063
85 1 0.507307 0.195661 0.11687
86 1 0.598667 0.228176 0.543989
87 1 0.717264 0.546191 0.265833
88 1 0.782243 0.342319 0.414377
89 1 0.389438 0.383668 0.641313
90 1 0.626511 0.989874 0.212632
91 1 0.369302 0.159187 0.941871
92 1 0.771803 0.894871 0.0819683
93 1 0.365571 0.589619 0.543
94 1 0.282008 0.831981 0.739062
95 1 0.803529 0.891141 0.39816
96 1 0.41255 0.359315 0.860607
97 1 0.25008 0.19337 0.656977
98 1 0.12377 0.953556 0.387717
99 1 0.12303 0.864229 0.174308
100 1 0.0373681 0.0633311 0.0548847
ITEM: TIMESTEP
20000
ITEM: NUMBER OF ATOMS
100
ITEM: BOX BOUNDS xy xz yz pp pp pp
0.0000000000000000e+00 1.0211494999999999e+01 0.0000000000000000e+00
0.0000000000000000e+00 1.0211494999999999e+01 0.0000000000000000e+00
0.0000000000000000e+00 1.0211494999999999e+01 0.0000000000000000e+00
ITEM: ATOMS id type xs ys zs
1 1 0.555253 0.127733 0.838635
2 1 0.478317 0.856417 0.580922
3 1 0.33247 0.254451 0.902819
4 1 0.328474 0.216471 0.671074
5 1 0.584782 0.963687 1.00942
6 1 0.529046 0.59653 0.615619
7 1 0.367577 0.163601 0.40388
8 1 0.0632108 0.905575 0.405745
9 1 0.917339 0.125418 0.978747
10 1 0.926299 0.341291 0.0282613
11 1 0.206798 0.0657375 0.522289
12 1 0.224025 0.0296803 0.277474
13 1 0.715637 0.469715 0.724267
14 1 0.480313 0.210427 0.0378522
15 1 0.483183 0.0776124 0.617554
16 1 0.229058 0.533683 0.0892613
17 1 0.181788 0.53329 0.37709
18 1 0.250915 0.588184 0.890176
19 1 0.212428 0.537404 0.634023
20 1 0.309608 0.97157 0.709251
21 1 0.856699 0.704957 0.89723
22 1 0.0296393 0.167215 0.202416
23 1 0.723548 0.421383 0.510543
24 1 0.0352909 0.913853 0.890596
25 1 0.670104 0.908223 0.206929
26 1 0.0331938 0.633085 0.247307
27 1 0.855276 0.283579 0.224951
28 1 0.142792 0.310087 0.0173826
29 1 0.379028 0.643994 0.475764
30 1 0.738914 0.677806 0.256117
31 1 0.396437 0.687788 -0.00525721
32 1 0.56073 0.743065 0.349071
33 1 0.0316759 0.934081 0.184827
34 1 0.103888 0.680414 0.509341
35 1 0.691244 0.153181 0.0220597
36 1 0.640107 0.952144 0.746845
37 1 0.504426 0.388716 0.602854
38 1 0.801967 0.102531 0.788485
39 1 0.9985 0.23022 0.811355
40 1 0.290991 0.189658 0.149962
41 1 0.910016 0.79809 0.529434
42 1 0.904547 0.793601 0.313381
43 1 0.845838 0.0523652 0.188743
44 1 -0.00989033 0.473616 0.588166
45 1 0.942584 0.0378568 0.595029
46 1 0.640078 0.244082 0.670283
47 1 0.240005 0.867611 0.114412
48 1 0.0450672 0.523454 0.960197
49 1 0.767865 0.940972 0.915245
50 1 0.0548272 0.401748 0.20945
51 1 0.640168 0.13421 0.251738
52 1 0.582662 0.979333 0.42845
53 1 0.24855 0.832121 0.541898
54 1 0.249558 0.814455 0.88148
55 1 0.168492 0.259902 0.342503
56 1 0.0690819 0.656346 0.76081
57 1 0.72761 0.0809124 0.572191
58 1 0.778803 0.310147 0.870975
59 1 0.350314 0.706579 0.713209
60 1 0.573589 0.574853 0.140364
61 1 0.499261 0.490336 0.362227
62 1 0.46328 0.854873 0.147119
63 1 0.674307 0.74792 0.748622
64 1 0.92414 0.420979 0.782475
65 1 0.308453 0.387464 0.236198
66 1 0.873198 0.879153 0.744537
67 1 0.896005 0.567829 0.435463
68 1 0.00985306 0.161261 0.423996
69 1 0.875919 0.804084 0.0929394
70 1 0.390369 0.626134 0.239944
71 1 0.146391 0.0838946 0.0217643
72 1 0.558328 0.36214 0.872347
73 1 0.30702 0.368967 0.493312
74 1 0.70036 0.847651 0.547971
75 1 0.434207 0.448132 0.0325442
76 1 0.664721 0.376517 0.07277
77 1 0.161834 0.0968951 0.770363
78 1 0.463177 0.859106 0.838767
79 1 0.976153 0.376824 0.414163
80 1 0.875969 0.557269 0.116396
81 1 0.366549 -0.00477251 0.974121
82 1 0.862489 0.270784 0.627411
83 1 0.368692 0.445503 0.79741
84 1 0.73223 0.558565 0.958934
85 1 0.531443 0.318222 0.245078
86 1 0.787714 0.231476 0.42003
87 1 0.864403 0.625572 0.676574
88 1 0.716347 0.438647 0.283623
89 1 0.451097 0.0621792 0.232063
90 1 0.710248 0.645429 0.48179
91 1 0.558714 0.251663 0.447083
92 1 0.648188 0.755595 0.0270467
93 1 0.538691 0.579063 0.840408
94 1 0.0910665 0.87135 0.679307
95 1 0.806039 0.977045 0.389367
96 1 0.158511 0.395545 0.829461
97 1 0.118921 0.288785 0.589111
98 1 0.230743 0.756587 0.323082
99 1 0.381233 0.902842 0.377801
100 1 0.0829982 0.735788 0.0152862
ITEM: TIMESTEP
30000
ITEM: NUMBER OF ATOMS
100
ITEM: BOX BOUNDS xy xz yz pp pp pp
0.0000000000000000e+00 1.0211494999999999e+01 0.0000000000000000e+00
0.0000000000000000e+00 1.0211494999999999e+01 0.0000000000000000e+00
0.0000000000000000e+00 1.0211494999999999e+01 0.0000000000000000e+00
ITEM: ATOMS id type xs ys zs
1 1 0.270572 1.00259 0.743726
2 1 0.474195 0.817636 0.50263
3 1 0.402513 0.218906 0.762014
4 1 0.371367 0.229748 0.465504
5 1 0.497495 0.831283 0.980781
6 1 0.501768 0.630503 0.628293
7 1 0.389916 0.168385 0.262422
8 1 0.0438808 0.986503 0.390572
9 1 0.81997 0.0926643 0.0685609
10 1 0.9828 0.43331 0.025689
11 1 0.250679 1.00162 0.485481
12 1 0.218455 0.951515 0.236608
13 1 0.727992 0.536839 0.706493
14 1 0.20246 0.158756 0.123346
15 1 0.607748 0.0909185 0.732341
16 1 0.337161 0.585689 0.264461
17 1 0.240138 0.384827 0.338819
18 1 0.312205 0.560987 0.731469
19 1 0.089357 0.560618 0.673004
20 1 0.439633 0.0173378 0.595247
21 1 0.897491 0.647225 0.90605
22 1 1.00465 0.18942 -0.00367792
23 1 0.684258 0.441058 0.512866
24 1 0.0361398 -0.00490189 0.861627
25 1 0.652604 0.942216 0.163708
26 1 0.332726 0.559059 0.0295332
27 1 0.805765 0.293481 0.1597
28 1 0.215107 0.369692 0.0136386
29 1 0.290617 0.607414 0.509953
30 1 0.714366 0.721126 0.203255
31 1 0.50371 0.629969 0.861384
32 1 0.661291 0.8645 0.376234
33 1 0.0213094 -0.0301454 0.130741
34 1 0.100696 0.582519 0.393989
35 1 0.60613 0.144897 0.145654
36 1 0.660975 0.981207 0.924761
37 1 0.584332 0.204222 0.934732
38 1 0.812263 0.145661 0.825399
39 1 0.0162254 0.2352 0.774702
40 1 0.146623 0.171362 0.368803
41 1 0.86235 0.8883 0.484111
42 1 0.0655731 0.796512 0.263526
43 1 0.837855 0.877109 0.0551499
44 1 -0.0648503 0.446681 0.78582
45 1 0.0270509 0.348887 0.438593
46 1 0.557045 0.244304 0.569647
47 1 0.259888 0.750632 0.114977
48 1 0.116346 0.564838 0.914879
49 1 0.843137 0.861903 0.846813
50 1 0.0639623 0.326736 0.211012
51 1 0.758747 0.105138 0.300879
52 1 0.590511 0.0799312 0.426761
53 1 0.0554215 0.768056 0.49746
54 1 0.280377 0.753379 0.898397
55 1 0.895998 0.525825 0.519761
56 1 0.0817232 0.761495 0.779487
57 1 0.775487 0.12961 0.517007
58 1 0.443067 0.0211644 0.880405
59 1 0.257132 0.792916 0.62563
60 1 0.526101 0.571639 0.12463
61 1 0.65028 0.331559 0.733521
62 1 0.475112 0.787921 0.219227
63 1 0.655662 0.767665 0.749395
64 1 0.806288 0.339113 0.925517
65 1 0.467991 0.444163 0.426188
66 1 0.874642 0.990496 0.673229
67 1 0.877275 0.701247 0.363704
68 1 0.971156 0.152478 0.246858
69 1 0.92116 0.677304 0.133258
70 1 0.55498 0.645218 0.367074
71 1 0.227389 0.173842 0.90094
72 1 0.401696 0.220699 0.0348082
73 1 0.219995 0.397474 0.569457
74 1 0.664457 0.930163 0.593274
75 1 0.404785 0.387923 0.193815
76 1 0.61143 0.372213 0.113185
77 1 0.0922396 0.942731 0.634695
78 1 0.443635 0.832078 0.751967
79 1 0.830763 0.304124 0.382694
80 1 0.126156 0.56265 0.166873
81 1 0.222541 0.953104 -0.00756887
82 1 0.850919 0.296819 0.637475
83 1 0.439357 0.394344 0.89629
84 1 0.785063 0.519977 0.0892735
85 1 0.588258 0.290183 0.327583
86 1 0.717264 0.501829 0.307163
87 1 0.882714 0.708365 0.667399
88 1 0.936545 0.494178 0.266549
89 1 0.425827 1.00263 0.0991384
90 1 0.701358 0.706373 0.536508
91 1 0.429027 0.40829 0.650701
92 1 0.689517 0.703832 0.962379
93 1 0.648373 0.489029 0.928925
94 1 1.0067 0.166373 0.551681
95 1 0.864907 0.922218 0.274918
96 1 0.191522 0.368383 0.797908
97 1 0.202711 0.200157 0.641871
98 1 0.267782 0.786292 0.39306
99 1 0.438422 0.971036 0.347165
100 1 0.0735983 0.784665 -0.0135575
ITEM: TIMESTEP
40000
ITEM: NUMBER OF ATOMS
100
ITEM: BOX BOUNDS xy xz yz pp pp pp
0.0000000000000000e+00 1.0211494999999999e+01 0.0000000000000000e+00
0.0000000000000000e+00 1.0211494999999999e+01 0.0000000000000000e+00
0.0000000000000000e+00 1.0211494999999999e+01 0.0000000000000000e+00
ITEM: ATOMS id type xs ys zs
1 1 0.264768 0.933655 0.747713
2 1 0.45027 0.856835 0.463891
3 1 0.434404 0.243441 0.735061
4 1 0.374473 0.211314 0.508739
5 1 0.485339 0.851687 0.997653
6 1 0.535158 0.690802 0.626369
7 1 0.384825 0.164215 0.277398
8 1 0.041605 0.938899 0.405138
9 1 0.806237 0.119621 -0.005139
10 1 0.999554 0.475475 0.0855793
11 1 0.249598 0.969832 0.514648
12 1 0.234847 0.953655 0.283962
13 1 0.700814 0.579601 0.705405
14 1 0.17834 0.164049 0.178142
15 1 0.634084 0.100838 0.711533
16 1 0.318797 0.564903 0.237211
17 1 0.254301 0.366232 0.375295
18 1 0.303905 0.57711 0.770575
19 1 0.104347 0.543011 0.638065
20 1 0.441294 0.0348093 0.633237
21 1 0.865169 0.610141 0.890093
22 1 0.0364355 0.273135 -0.0124404
23 1 0.693246 0.466776 0.498448
24 1 0.998361 0.0635926 0.857974
25 1 0.659187 0.916178 0.136735
26 1 0.290976 0.563575 -0.00255418
27 1 0.854505 0.286933 0.140958
28 1 0.200559 0.370184 0.10693
29 1 0.31597 0.564193 0.512552
30 1 0.729079 0.730073 0.247072
31 1 0.496009 0.649538 0.87304
32 1 0.668014 0.898361 0.372961
33 1 0.985474 0.075901 0.116451
34 1 0.114693 0.537801 0.404592
35 1 0.545034 0.0969657 0.0917463
36 1 0.668911 -0.0219176 0.907523
37 1 0.58844 0.223127 0.907567
38 1 0.843469 0.187248 0.776398
39 1 0.0417325 0.298304 0.747536
40 1 0.160982 0.145208 0.405214
41 1 0.855954 0.89038 0.52238
42 1 0.0560322 0.85191 0.186657
43 1 0.869634 0.900006 0.0385158
44 1 0.902535 0.461394 0.725274
45 1 0.0579891 0.320169 0.516539
46 1 0.592583 0.261257 0.544098
47 1 0.294086 0.77146 0.132336
48 1 0.0722914 0.524265 0.871641
49 1 0.957543 0.832197 0.83972
50 1 0.0453828 0.345131 0.278792
51 1 0.730432 0.114264 0.220334
52 1 0.533232 0.068784 0.432284
53 1 0.0920126 0.753419 0.527721
54 1 0.299635 0.77556 0.910237
55 1 0.900798 0.518665 0.512456
56 1 0.140869 0.730707 0.754435
57 1 0.756428 0.0956573 0.478982
58 1 0.438335 0.0534392 0.892409
59 1 0.317247 0.753697 0.612206
60 1 0.506408 0.518124 0.0750456
61 1 0.67039 0.343835 0.735609
62 1 0.515386 0.719925 0.187414
63 1 0.718016 0.780792 0.801596
64 1 0.806596 0.342792 0.933395
65 1 0.470175 0.431167 0.445615
66 1 0.829889 0.973338 0.716631
67 1 0.939279 0.739894 0.364465
68 1 0.940691 0.14888 0.327196
69 1 0.891533 0.691773 0.0911944
70 1 0.515564 0.654892 0.395721
71 1 0.217739 0.130052 0.878373
72 1 0.370975 0.228506 0.0230955
73 1 0.256299 0.375491 0.644067
74 1 0.632165 0.901669 0.595049
75 1 0.419364 0.361745 0.202394
76 1 0.632309 0.308966 0.114945
77 1 0.0532246 0.938962 0.664387
78 1 0.48241 0.857412 0.776333
79 1 0.817978 0.334685 0.353547
80 1 0.098128 0.642883 0.211681
81 1 0.126628 0.933334 0.974161
82 1 0.826133 0.292449 0.572654
83 1 0.447706 0.407328 0.895428
84 1 0.768855 0.50739 0.0991588
85 1 0.604951 0.254355 0.324782
86 1 0.632935 0.500318 0.281004
87 1 0.900217 0.703777 0.656705
88 1 0.889482 0.538767 0.298158
89 1 0.313209 0.000560511 0.0690326
90 1 0.730588 0.697425 0.479954
91 1 0.490671 0.473688 0.685628
92 1 0.68325 0.714571 0.00879504
93 1 0.653915 0.494753 0.911342
94 1 0.977054 0.104997 0.559957
95 1 0.871178 0.941612 0.272536
96 1 0.228529 0.373452 0.86492
97 1 0.19097 0.14548 0.647406
98 1 0.263677 0.740077 0.362202
99 1 0.457482 0.944968 0.246803
100 1 0.0918231 0.707252 0.985332
