# Converted from POSCAR to lammps format

100 atoms
1 atom types

0.000000   10.211495   xlo xhi
0.000000   10.211495   ylo yhi
0.000000   10.211495   zlo zhi

  0.000000    0.000000    0.000000   xy xz yz

Atoms

   1  1      8.418572 7.872828 0.947751
   2  1      8.359495 9.178283 -0.989752
   3  1      7.089038 1.418255 4.345626
   4  1      8.082374 2.268799 8.741966
   5  1      3.096245 -0.112461 4.128401
   6  1      6.266469 8.168658 8.652855
   7  1      5.058175 5.917138 4.462654
   8  1      5.145503 5.600256 2.224658
   9  1      5.637660 -0.387816 2.862635
  10  1      0.133582 -0.010459 -1.248491
  11  1      1.884460 1.926015 4.501016
  12  1      8.253047 4.265990 4.244794
  13  1      -0.294468 2.229101 7.919092
  14  1      7.871124 3.241859 6.453239
  15  1      -1.124008 1.843000 5.352544
  16  1      0.851847 -0.058618 4.397427
  17  1      0.513954 0.859161 6.402976
  18  1      1.888138 2.671677 -0.210271
  19  1      4.490532 2.011492 3.714921
  20  1      6.157682 7.451648 3.069694
  21  1      5.841276 7.051627 0.464675
  22  1      0.039848 3.943940 6.300385
  23  1      6.312373 2.532868 -0.021262
  24  1      3.319760 6.757786 3.240037
  25  1      9.130645 0.794955 3.235115
  26  1      0.191824 3.857064 1.281979
  27  1      1.816136 0.500677 0.241070
  28  1      0.457830 3.628857 3.906706
  29  1      2.995509 4.493495 0.727789
  30  1      6.496597 0.772468 8.643223
  31  1      6.837825 -1.029632 4.668434
  32  1      1.856108 1.335864 8.316767
  33  1      2.344411 8.333225 0.510158
  34  1      0.964298 5.951381 4.376526
  35  1      2.377102 3.024122 2.514843
  36  1      0.198410 8.148984 -0.207736
  37  1      4.184832 8.298910 1.998287
  38  1      7.536551 5.933314 2.256107
  39  1      1.024393 1.339393 2.406721
  40  1      4.987344 0.523770 0.716333
  41  1      7.982706 6.648303 -0.978991
  42  1      4.248444 5.073780 6.592292
  43  1      -0.313359 -0.462577 1.480033
  44  1      -1.108553 6.008202 5.814289
  45  1      4.668896 2.912531 5.799831
  46  1      2.068932 5.008159 6.128674
  47  1      8.815757 2.629035 2.267874
  48  1      6.509768 1.443029 6.401833
  49  1      4.244407 0.745677 8.313134
  50  1      8.118654 0.766048 0.657749
  51  1      3.729427 3.055613 8.036139
  52  1      1.461295 5.120710 2.487716
  53  1      2.564961 -0.696632 8.440609
  54  1      -0.363804 6.288254 8.340996
  55  1      4.886964 3.295378 1.823892
  56  1      0.266357 8.563034 7.539966
  57  1      1.017029 6.577866 6.494717
  58  1      7.614391 7.181789 4.923718
  59  1      1.144702 6.264254 0.143010
  60  1      6.348571 -0.596302 6.860247
  61  1      6.242414 -1.029218 0.579125
  62  1      3.240215 0.940270 6.353573
  63  1      6.656817 5.111463 5.937516
  64  1      1.130943 7.472509 2.381427
  65  1      4.610792 4.733328 9.413759
  66  1      1.906649 -0.757640 2.393072
  67  1      -0.713026 5.925395 2.904916
  68  1      1.749459 2.746779 6.648404
  69  1      8.226674 4.594844 8.173056
  70  1      8.147392 7.855185 7.447332
  71  1      5.933638 3.116564 7.968593
  72  1      2.528564 4.782203 8.443373
  73  1      1.995056 7.186586 8.308236
  74  1      5.953730 7.307306 6.293807
  75  1      6.545731 4.979644 0.235768
  76  1      4.398668 8.152411 4.394776
  77  1      4.266657 8.600829 -0.553253
  78  1      3.182285 4.556009 4.315407
  79  1      -0.931273 5.597815 0.618414
  80  1      6.377326 5.691782 8.068046
  81  1      6.096669 3.700062 4.294691
  82  1      2.001653 8.101909 4.404501
  83  1      8.411715 0.178221 7.330822
  84  1      3.269554 7.225448 6.136204
  85  1      3.906177 2.353686 -0.114264
  86  1      6.493937 1.667834 2.018960
  87  1      3.480978 6.566748 0.423245
  88  1      8.930309 -0.386968 5.101381
  89  1      4.129723 6.609180 8.297267
  90  1      7.888238 -0.818463 2.427477
  91  1      5.151817 0.210860 5.010702
  92  1      6.972080 3.882858 2.300566
  93  1      4.343108 8.792756 7.130248
  94  1      8.406505 3.664498 0.088868
  95  1      -0.884854 8.036275 3.149792
  96  1      -0.178975 1.818171 0.347734
  97  1      0.413974 4.175057 -0.898738
  98  1      -0.088993 8.196775 5.290123
  99  1      1.994441 9.327467 6.246551
 100  1      3.421200 1.050145 1.946101
