 100 100   0   0
  0.1064800E+02  0.1021150E-08  0.1021150E-08  0.1021150E-08  0.3000000E-15
   2000.00000000000     
  CAR 
 unknown system                          
     21.00097898     -6.08144222  301     14.18441240      1.00000000
     -6.081  0.0000E+00  0.0000E+00  0.0000E+00  0.0000E+00
     -5.991  0.0000E+00  0.0000E+00  0.0000E+00  0.0000E+00
     -5.901  0.0000E+00  0.0000E+00  0.0000E+00  0.0000E+00
     -5.811  0.0000E+00  0.0000E+00  0.0000E+00  0.0000E+00
     -5.720  0.0000E+00  0.0000E+00  0.0000E+00  0.0000E+00
     -5.630  0.0000E+00  0.0000E+00  0.0000E+00  0.0000E+00
     -5.540  0.0000E+00  0.0000E+00  0.0000E+00  0.0000E+00
     -5.450  0.0000E+00  0.0000E+00  0.0000E+00  0.0000E+00
     -5.359  0.0000E+00  0.0000E+00  0.0000E+00  0.0000E+00
     -5.269  0.0000E+00  0.0000E+00  0.0000E+00  0.0000E+00
     -5.179  0.0000E+00  0.0000E+00  0.0000E+00  0.0000E+00
     -5.088  0.9296E-10  0.9170E-10  0.8392E-11  0.8278E-11
     -4.998  0.1627E-03  0.1613E-03  0.1469E-04  0.1456E-04
     -4.908  0.5769E+00  0.5746E+00  0.5210E-01  0.5188E-01
     -4.818  0.8544E+01  0.8541E+01  0.8234E+00  0.8229E+00
     -4.727  0.1953E+01  0.1959E+01  0.9998E+00  0.9997E+00
     -4.637  0.2758E-02  0.2779E-02  0.1000E+01  0.1000E+01
     -4.547  0.8793E-08  0.8902E-08  0.1000E+01  0.1000E+01
     -4.456  0.0000E+00  0.0000E+00  0.1000E+01  0.1000E+01
     -4.366  0.0000E+00  0.0000E+00  0.1000E+01  0.1000E+01
     -4.276  0.0000E+00  0.0000E+00  0.1000E+01  0.1000E+01
     -4.186  0.0000E+00  0.0000E+00  0.1000E+01  0.1000E+01
     -4.095  0.0000E+00  0.0000E+00  0.1000E+01  0.1000E+01
     -4.005  0.0000E+00  0.0000E+00  0.1000E+01  0.1000E+01
     -3.915  0.7204E-08  0.7108E-08  0.1000E+01  0.1000E+01
     -3.825  0.2445E-02  0.2425E-02  0.1000E+01  0.1000E+01
     -3.734  0.1863E+01  0.1857E+01  0.1168E+01  0.1168E+01
     -3.644  0.8642E+01  0.8645E+01  0.1949E+01  0.1948E+01
     -3.554  0.5758E+01  0.5749E+01  0.2468E+01  0.2467E+01
     -3.463  0.1019E+02  0.1020E+02  0.3389E+01  0.3388E+01
     -3.373  0.6650E+01  0.6660E+01  0.3989E+01  0.3989E+01
     -3.283  0.1226E+00  0.1234E+00  0.4000E+01  0.4000E+01
     -3.193  0.7239E-05  0.7327E-05  0.4000E+01  0.4000E+01
     -3.102  0.1157E-01  0.1149E-01  0.4001E+01  0.4001E+01
     -3.012  0.3313E+01  0.3306E+01  0.4300E+01  0.4299E+01
     -2.922  0.7769E+01  0.7773E+01  0.5001E+01  0.5001E+01
     -2.832  0.7843E+01  0.7833E+01  0.5709E+01  0.5708E+01
     -2.741  0.3207E+01  0.3220E+01  0.5999E+01  0.5999E+01
     -2.651  0.5747E-01  0.5719E-01  0.6004E+01  0.6004E+01
     -2.561  0.5142E+01  0.5130E+01  0.6468E+01  0.6467E+01
     -2.470  0.5814E+01  0.5826E+01  0.6993E+01  0.6993E+01
     -2.380  0.7405E-01  0.7466E-01  0.7000E+01  0.7000E+01
     -2.290  0.4378E+00  0.4357E+00  0.7040E+01  0.7039E+01
     -2.200  0.8397E+01  0.8391E+01  0.7798E+01  0.7797E+01
     -2.109  0.8840E+01  0.8835E+01  0.8596E+01  0.8594E+01
     -2.019  0.9103E+01  0.9104E+01  0.9417E+01  0.9416E+01
     -1.929  0.6350E+01  0.6363E+01  0.9991E+01  0.9991E+01
     -1.839  0.5170E+00  0.5152E+00  0.1004E+02  0.1004E+02
     -1.748  0.8229E+01  0.8222E+01  0.1078E+02  0.1078E+02
     -1.658  0.5724E+01  0.5719E+01  0.1130E+02  0.1130E+02
     -1.568  0.1664E+02  0.1665E+02  0.1280E+02  0.1280E+02
     -1.477  0.2236E+01  0.2248E+01  0.1300E+02  0.1300E+02
     -1.387  0.3720E+01  0.3709E+01  0.1334E+02  0.1334E+02
     -1.297  0.7161E+01  0.7171E+01  0.1398E+02  0.1398E+02
     -1.207  0.4474E+00  0.4466E+00  0.1402E+02  0.1402E+02
     -1.116  0.7680E+01  0.7670E+01  0.1472E+02  0.1472E+02
     -1.026  0.3148E+01  0.3159E+01  0.1500E+02  0.1500E+02
     -0.936  0.4283E+01  0.4267E+01  0.1539E+02  0.1539E+02
     -0.846  0.7422E+01  0.7432E+01  0.1606E+02  0.1606E+02
     -0.755  0.9073E+01  0.9069E+01  0.1688E+02  0.1688E+02
     -0.665  0.8867E+01  0.8862E+01  0.1768E+02  0.1768E+02
     -0.575  0.3557E+01  0.3572E+01  0.1800E+02  0.1800E+02
     -0.484  0.2313E+00  0.2293E+00  0.1802E+02  0.1802E+02
     -0.394  0.7408E+01  0.7394E+01  0.1869E+02  0.1869E+02
     -0.304  0.3538E+01  0.3554E+01  0.1901E+02  0.1901E+02
     -0.214  0.6265E+01  0.6252E+01  0.1957E+02  0.1957E+02
     -0.123  0.4692E+01  0.4706E+01  0.2000E+02  0.2000E+02
     -0.033  0.7511E+00  0.7459E+00  0.2006E+02  0.2006E+02
      0.057  0.8701E+01  0.8696E+01  0.2085E+02  0.2085E+02
      0.148  0.1664E+01  0.1674E+01  0.2100E+02  0.2100E+02
      0.238  0.2610E+01  0.2596E+01  0.2124E+02  0.2123E+02
      0.328  0.8152E+01  0.8162E+01  0.2197E+02  0.2197E+02
      0.418  0.5815E+01  0.5805E+01  0.2250E+02  0.2250E+02
      0.509  0.5629E+01  0.5641E+01  0.2300E+02  0.2300E+02
      0.599  0.8126E+01  0.8107E+01  0.2374E+02  0.2374E+02
      0.689  0.1937E+02  0.1937E+02  0.2549E+02  0.2548E+02
      0.779  0.5964E+01  0.5982E+01  0.2603E+02  0.2602E+02
      0.870  0.8475E+01  0.8462E+01  0.2679E+02  0.2679E+02
      0.960  0.1132E+02  0.1133E+02  0.2781E+02  0.2781E+02
      1.050  0.3236E+01  0.3240E+01  0.2810E+02  0.2810E+02
      1.141  0.1199E+02  0.1198E+02  0.2919E+02  0.2919E+02
      1.231  0.8747E+01  0.8763E+01  0.2998E+02  0.2998E+02
      1.321  0.1218E+01  0.1214E+01  0.3009E+02  0.3009E+02
      1.411  0.8824E+01  0.8823E+01  0.3088E+02  0.3088E+02
      1.502  0.1297E+01  0.1304E+01  0.3100E+02  0.3100E+02
      1.592  0.1152E+01  0.1145E+01  0.3110E+02  0.3110E+02
      1.682  0.1333E+02  0.1331E+02  0.3231E+02  0.3231E+02
      1.772  0.7658E+01  0.7679E+01  0.3300E+02  0.3300E+02
      1.863  0.6863E+01  0.6851E+01  0.3362E+02  0.3362E+02
      1.953  0.1391E+02  0.1391E+02  0.3487E+02  0.3487E+02
      2.043  0.1180E+02  0.1180E+02  0.3594E+02  0.3594E+02
      2.134  0.1723E+02  0.1721E+02  0.3749E+02  0.3749E+02
      2.224  0.1755E+02  0.1757E+02  0.3908E+02  0.3908E+02
      2.314  0.1373E+02  0.1372E+02  0.4032E+02  0.4032E+02
      2.404  0.1026E+02  0.1027E+02  0.4124E+02  0.4124E+02
      2.495  0.8180E+01  0.8189E+01  0.4198E+02  0.4198E+02
      2.585  0.7138E+01  0.7126E+01  0.4263E+02  0.4263E+02
      2.675  0.1285E+02  0.1284E+02  0.4379E+02  0.4378E+02
      2.765  0.1305E+02  0.1307E+02  0.4497E+02  0.4496E+02
      2.856  0.9144E+01  0.9137E+01  0.4579E+02  0.4579E+02
      2.946  0.1636E+02  0.1634E+02  0.4727E+02  0.4726E+02
      3.036  0.1707E+02  0.1709E+02  0.4881E+02  0.4881E+02
      3.127  0.3185E+01  0.3189E+01  0.4910E+02  0.4910E+02
      3.217  0.1356E+02  0.1354E+02  0.5032E+02  0.5032E+02
      3.307  0.1258E+02  0.1258E+02  0.5146E+02  0.5145E+02
      3.397  0.1593E+02  0.1594E+02  0.5289E+02  0.5289E+02
      3.488  0.2305E+01  0.2306E+01  0.5310E+02  0.5310E+02
      3.578  0.9581E+01  0.9575E+01  0.5397E+02  0.5397E+02
      3.668  0.1551E+02  0.1550E+02  0.5537E+02  0.5536E+02
      3.759  0.1124E+02  0.1125E+02  0.5638E+02  0.5638E+02
      3.849  0.9403E+01  0.9402E+01  0.5723E+02  0.5723E+02
      3.939  0.1575E+02  0.1574E+02  0.5865E+02  0.5865E+02
      4.029  0.1643E+02  0.1643E+02  0.6014E+02  0.6013E+02
      4.120  0.1875E+02  0.1876E+02  0.6183E+02  0.6183E+02
      4.210  0.2672E+01  0.2681E+01  0.6207E+02  0.6207E+02
      4.300  0.8742E+01  0.8738E+01  0.6286E+02  0.6286E+02
      4.390  0.3175E+01  0.3176E+01  0.6315E+02  0.6314E+02
      4.481  0.8731E+01  0.8735E+01  0.6393E+02  0.6393E+02
      4.571  0.3479E+01  0.3469E+01  0.6425E+02  0.6425E+02
      4.661  0.9046E+01  0.9050E+01  0.6506E+02  0.6506E+02
      4.752  0.9191E+01  0.9194E+01  0.6589E+02  0.6589E+02
      4.842  0.4524E+01  0.4518E+01  0.6630E+02  0.6630E+02
      4.932  0.9695E+01  0.9696E+01  0.6718E+02  0.6718E+02
      5.022  0.9335E+01  0.9340E+01  0.6802E+02  0.6802E+02
      5.113  0.1381E+02  0.1380E+02  0.6927E+02  0.6926E+02
      5.203  0.1005E+02  0.1007E+02  0.7017E+02  0.7017E+02
      5.293  0.8725E+01  0.8733E+01  0.7096E+02  0.7096E+02
      5.383  0.7197E+01  0.7184E+01  0.7161E+02  0.7161E+02
      5.474  0.6152E+01  0.6157E+01  0.7217E+02  0.7217E+02
      5.564  0.1890E+02  0.1889E+02  0.7387E+02  0.7387E+02
      5.654  0.1258E+02  0.1259E+02  0.7501E+02  0.7501E+02
      5.745  0.1045E+02  0.1045E+02  0.7595E+02  0.7595E+02
      5.835  0.9968E+01  0.9972E+01  0.7685E+02  0.7685E+02
      5.925  0.6276E+01  0.6269E+01  0.7742E+02  0.7742E+02
      6.015  0.7221E+01  0.7233E+01  0.7807E+02  0.7807E+02
      6.106  0.8908E+01  0.8907E+01  0.7888E+02  0.7887E+02
      6.196  0.2311E+01  0.2311E+01  0.7908E+02  0.7908E+02
      6.286  0.1139E+02  0.1137E+02  0.8011E+02  0.8011E+02
      6.376  0.1045E+02  0.1046E+02  0.8106E+02  0.8105E+02
      6.467  0.1058E+02  0.1058E+02  0.8201E+02  0.8201E+02
      6.557  0.1034E+02  0.1034E+02  0.8294E+02  0.8294E+02
      6.647  0.1255E+02  0.1252E+02  0.8408E+02  0.8407E+02
      6.738  0.1427E+02  0.1428E+02  0.8536E+02  0.8536E+02
      6.828  0.1103E+02  0.1103E+02  0.8636E+02  0.8636E+02
      6.918  0.1297E+02  0.1297E+02  0.8753E+02  0.8753E+02
      7.008  0.1214E+02  0.1214E+02  0.8863E+02  0.8862E+02
      7.099  0.1365E+02  0.1367E+02  0.8986E+02  0.8986E+02
      7.189  0.1051E+02  0.1049E+02  0.9081E+02  0.9081E+02
      7.279  0.1913E+02  0.1913E+02  0.9253E+02  0.9253E+02
      7.369  0.1090E+02  0.1091E+02  0.9352E+02  0.9352E+02
      7.460  0.1161E+02  0.1160E+02  0.9457E+02  0.9456E+02
      7.550  0.1681E+02  0.1680E+02  0.9608E+02  0.9608E+02
      7.640  0.1969E+02  0.1970E+02  0.9786E+02  0.9786E+02
      7.731  0.1844E+02  0.1844E+02  0.9953E+02  0.9952E+02
      7.821  0.1524E+02  0.1522E+02  0.1009E+03  0.1009E+03
      7.911  0.2301E+02  0.2303E+02  0.1030E+03  0.1030E+03
      8.001  0.1533E+02  0.1531E+02  0.1044E+03  0.1044E+03
      8.092  0.1022E+02  0.1023E+02  0.1053E+03  0.1053E+03
      8.182  0.8085E+01  0.8093E+01  0.1060E+03  0.1060E+03
      8.272  0.1567E+02  0.1564E+02  0.1074E+03  0.1074E+03
      8.363  0.1738E+02  0.1740E+02  0.1090E+03  0.1090E+03
      8.453  0.1398E+02  0.1397E+02  0.1103E+03  0.1103E+03
      8.543  0.1692E+02  0.1691E+02  0.1118E+03  0.1118E+03
      8.633  0.2436E+02  0.2436E+02  0.1140E+03  0.1140E+03
      8.724  0.2135E+02  0.2136E+02  0.1159E+03  0.1159E+03
      8.814  0.2595E+02  0.2594E+02  0.1183E+03  0.1183E+03
      8.904  0.1474E+02  0.1475E+02  0.1196E+03  0.1196E+03
      8.994  0.1525E+02  0.1525E+02  0.1210E+03  0.1210E+03
      9.085  0.2283E+02  0.2280E+02  0.1230E+03  0.1230E+03
      9.175  0.2500E+02  0.2503E+02  0.1253E+03  0.1253E+03
      9.265  0.1503E+02  0.1504E+02  0.1266E+03  0.1266E+03
      9.356  0.1535E+02  0.1535E+02  0.1280E+03  0.1280E+03
      9.446  0.1041E+02  0.1042E+02  0.1290E+03  0.1290E+03
      9.536  0.9159E+01  0.9134E+01  0.1298E+03  0.1298E+03
      9.626  0.1417E+02  0.1418E+02  0.1311E+03  0.1311E+03
      9.717  0.1515E+02  0.1513E+02  0.1324E+03  0.1324E+03
      9.807  0.2188E+02  0.2187E+02  0.1344E+03  0.1344E+03
      9.897  0.2346E+02  0.2347E+02  0.1365E+03  0.1365E+03
      9.987  0.1479E+02  0.1481E+02  0.1379E+03  0.1379E+03
     10.078  0.1120E+02  0.1120E+02  0.1389E+03  0.1389E+03
     10.168  0.1455E+02  0.1454E+02  0.1402E+03  0.1402E+03
     10.258  0.1619E+02  0.1619E+02  0.1417E+03  0.1416E+03
     10.349  0.1365E+02  0.1367E+02  0.1429E+03  0.1429E+03
     10.439  0.9232E+01  0.9213E+01  0.1437E+03  0.1437E+03
     10.529  0.1456E+02  0.1457E+02  0.1450E+03  0.1450E+03
     10.619  0.1736E+02  0.1733E+02  0.1466E+03  0.1466E+03
     10.710  0.1986E+02  0.1988E+02  0.1484E+03  0.1484E+03
     10.800  0.1683E+02  0.1682E+02  0.1499E+03  0.1499E+03
     10.890  0.1393E+02  0.1395E+02  0.1512E+03  0.1512E+03
     10.980  0.1608E+02  0.1607E+02  0.1526E+03  0.1526E+03
     11.071  0.1597E+02  0.1597E+02  0.1541E+03  0.1541E+03
     11.161  0.1134E+02  0.1135E+02  0.1551E+03  0.1551E+03
     11.251  0.9760E+01  0.9758E+01  0.1560E+03  0.1560E+03
     11.342  0.1650E+02  0.1648E+02  0.1575E+03  0.1575E+03
     11.432  0.1491E+02  0.1491E+02  0.1588E+03  0.1588E+03
     11.522  0.1859E+02  0.1860E+02  0.1605E+03  0.1605E+03
     11.612  0.1392E+02  0.1392E+02  0.1617E+03  0.1617E+03
     11.703  0.2010E+02  0.2010E+02  0.1636E+03  0.1635E+03
     11.793  0.1524E+02  0.1525E+02  0.1649E+03  0.1649E+03
     11.883  0.1709E+02  0.1708E+02  0.1665E+03  0.1665E+03
     11.974  0.1850E+02  0.1850E+02  0.1681E+03  0.1681E+03
     12.064  0.1239E+02  0.1240E+02  0.1693E+03  0.1693E+03
     12.154  0.1316E+02  0.1315E+02  0.1704E+03  0.1704E+03
     12.244  0.2092E+02  0.2091E+02  0.1723E+03  0.1723E+03
     12.335  0.2039E+02  0.2039E+02  0.1742E+03  0.1742E+03
     12.425  0.2000E+02  0.2001E+02  0.1760E+03  0.1760E+03
     12.515  0.1781E+02  0.1782E+02  0.1776E+03  0.1776E+03
     12.605  0.7805E+01  0.7808E+01  0.1783E+03  0.1783E+03
     12.696  0.2182E+02  0.2179E+02  0.1803E+03  0.1803E+03
     12.786  0.1755E+02  0.1758E+02  0.1818E+03  0.1818E+03
     12.876  0.6220E+01  0.6203E+01  0.1824E+03  0.1824E+03
     12.967  0.1915E+02  0.1915E+02  0.1841E+03  0.1841E+03
     13.057  0.1672E+02  0.1673E+02  0.1856E+03  0.1856E+03
     13.147  0.7223E+01  0.7226E+01  0.1863E+03  0.1863E+03
     13.237  0.1609E+02  0.1607E+02  0.1878E+03  0.1877E+03
     13.328  0.1317E+02  0.1320E+02  0.1889E+03  0.1889E+03
     13.418  0.1188E+01  0.1189E+01  0.1890E+03  0.1890E+03
     13.508  0.1534E+02  0.1531E+02  0.1904E+03  0.1904E+03
     13.598  0.8967E+01  0.8987E+01  0.1912E+03  0.1912E+03
     13.689  0.8144E+01  0.8154E+01  0.1920E+03  0.1920E+03
     13.779  0.1047E+02  0.1044E+02  0.1929E+03  0.1929E+03
     13.869  0.1394E+02  0.1396E+02  0.1942E+03  0.1942E+03
     13.960  0.1379E+02  0.1377E+02  0.1954E+03  0.1954E+03
     14.050  0.2753E+02  0.2752E+02  0.1979E+03  0.1979E+03
     14.140  0.1579E+02  0.1579E+02  0.1993E+03  0.1993E+03
     14.230  0.1814E+02  0.1811E+02  0.2010E+03  0.2010E+03
     14.321  0.1831E+02  0.1837E+02  0.2026E+03  0.2026E+03
     14.411  0.1141E+02  0.1141E+02  0.2037E+03  0.2037E+03
     14.501  0.1283E+02  0.1282E+02  0.2048E+03  0.2048E+03
     14.591  0.2323E+02  0.2320E+02  0.2069E+03  0.2069E+03
     14.682  0.2635E+02  0.2639E+02  0.2093E+03  0.2093E+03
     14.772  0.1080E+02  0.1081E+02  0.2103E+03  0.2103E+03
     14.862  0.2161E+02  0.2160E+02  0.2122E+03  0.2122E+03
     14.953  0.1555E+02  0.1556E+02  0.2136E+03  0.2136E+03
     15.043  0.1312E+02  0.1310E+02  0.2148E+03  0.2148E+03
     15.133  0.2057E+02  0.2057E+02  0.2167E+03  0.2167E+03
     15.223  0.2586E+02  0.2585E+02  0.2190E+03  0.2190E+03
     15.314  0.2219E+02  0.2221E+02  0.2210E+03  0.2210E+03
     15.404  0.1901E+02  0.1901E+02  0.2227E+03  0.2227E+03
     15.494  0.1787E+02  0.1785E+02  0.2243E+03  0.2243E+03
     15.584  0.2048E+02  0.2050E+02  0.2262E+03  0.2262E+03
     15.675  0.1997E+02  0.1995E+02  0.2280E+03  0.2280E+03
     15.765  0.2870E+02  0.2869E+02  0.2306E+03  0.2306E+03
     15.855  0.2617E+02  0.2620E+02  0.2329E+03  0.2329E+03
     15.946  0.1152E+02  0.1153E+02  0.2340E+03  0.2340E+03
     16.036  0.1404E+02  0.1401E+02  0.2352E+03  0.2352E+03
     16.126  0.2130E+02  0.2131E+02  0.2372E+03  0.2372E+03
     16.216  0.1601E+02  0.1600E+02  0.2386E+03  0.2386E+03
     16.307  0.2414E+02  0.2413E+02  0.2408E+03  0.2408E+03
     16.397  0.2299E+02  0.2301E+02  0.2429E+03  0.2429E+03
     16.487  0.1169E+02  0.1171E+02  0.2439E+03  0.2439E+03
     16.578  0.1619E+02  0.1615E+02  0.2454E+03  0.2454E+03
     16.668  0.1856E+02  0.1860E+02  0.2471E+03  0.2471E+03
     16.758  0.2116E+02  0.2113E+02  0.2490E+03  0.2490E+03
     16.848  0.2126E+02  0.2129E+02  0.2509E+03  0.2509E+03
     16.939  0.1765E+02  0.1763E+02  0.2525E+03  0.2525E+03
     17.029  0.2097E+02  0.2098E+02  0.2544E+03  0.2544E+03
     17.119  0.1414E+02  0.1415E+02  0.2557E+03  0.2556E+03
     17.209  0.1832E+02  0.1829E+02  0.2573E+03  0.2573E+03
     17.300  0.3029E+02  0.3030E+02  0.2600E+03  0.2600E+03
     17.390  0.1525E+02  0.1526E+02  0.2614E+03  0.2614E+03
     17.480  0.2481E+02  0.2481E+02  0.2637E+03  0.2637E+03
     17.571  0.2191E+02  0.2190E+02  0.2656E+03  0.2656E+03
     17.661  0.1711E+02  0.1714E+02  0.2672E+03  0.2672E+03
     17.751  0.1152E+02  0.1152E+02  0.2682E+03  0.2682E+03
     17.841  0.1766E+02  0.1767E+02  0.2698E+03  0.2698E+03
     17.932  0.1152E+02  0.1149E+02  0.2709E+03  0.2708E+03
     18.022  0.2256E+02  0.2257E+02  0.2729E+03  0.2729E+03
     18.112  0.1515E+02  0.1514E+02  0.2743E+03  0.2743E+03
     18.202  0.2855E+02  0.2852E+02  0.2768E+03  0.2768E+03
     18.293  0.1794E+02  0.1798E+02  0.2785E+03  0.2785E+03
     18.383  0.1177E+02  0.1176E+02  0.2795E+03  0.2795E+03
     18.473  0.2000E+02  0.1999E+02  0.2813E+03  0.2813E+03
     18.564  0.1144E+02  0.1144E+02  0.2824E+03  0.2824E+03
     18.654  0.2500E+02  0.2497E+02  0.2846E+03  0.2846E+03
     18.744  0.1877E+02  0.1880E+02  0.2863E+03  0.2863E+03
     18.834  0.1149E+02  0.1149E+02  0.2873E+03  0.2873E+03
     18.925  0.2334E+02  0.2330E+02  0.2894E+03  0.2894E+03
     19.015  0.2095E+02  0.2097E+02  0.2913E+03  0.2913E+03
     19.105  0.1299E+02  0.1291E+02  0.2925E+03  0.2925E+03
     19.195  0.2207E+02  0.2205E+02  0.2945E+03  0.2945E+03
     19.286  0.2652E+02  0.2568E+02  0.2969E+03  0.2968E+03
     19.376  0.1947E+02  0.1968E+02  0.2987E+03  0.2986E+03
     19.466  0.1453E+02  0.1511E+02  0.3000E+03  0.3000E+03
     19.557  0.1400E+02  0.1735E+02  0.3012E+03  0.3015E+03
     19.647  0.1416E+02  0.1129E+02  0.3025E+03  0.3025E+03
     19.737  0.7330E+01  0.8537E+01  0.3032E+03  0.3033E+03
     19.827  0.8597E+01  0.7440E+01  0.3039E+03  0.3040E+03
     19.918  0.5769E+00  0.2151E+00  0.3040E+03  0.3040E+03
     20.008  0.1627E-03  0.2133E-04  0.3040E+03  0.3040E+03
     20.098  0.9296E-10  0.4076E-11  0.3040E+03  0.3040E+03
     20.189  0.0000E+00  0.0000E+00  0.3040E+03  0.3040E+03
     20.279  0.0000E+00  0.0000E+00  0.3040E+03  0.3040E+03
     20.369  0.0000E+00  0.0000E+00  0.3040E+03  0.3040E+03
     20.459  0.0000E+00  0.0000E+00  0.3040E+03  0.3040E+03
     20.550  0.0000E+00  0.0000E+00  0.3040E+03  0.3040E+03
     20.640  0.0000E+00  0.0000E+00  0.3040E+03  0.3040E+03
     20.730  0.0000E+00  0.0000E+00  0.3040E+03  0.3040E+03
     20.820  0.0000E+00  0.0000E+00  0.3040E+03  0.3040E+03
     20.911  0.0000E+00  0.0000E+00  0.3040E+03  0.3040E+03
     21.001  0.0000E+00  0.0000E+00  0.3040E+03  0.3040E+03
