  100  100    1    2
  0.1064800E+02  0.1021149E-08  0.1021149E-08  0.1021149E-08  0.3000000E-15
   2000.00000000000     
  CAR 
 unknown system                          
    400      1    304
 
  0.0000000E+00  0.0000000E+00  0.0000000E+00  0.1000000E+01
    1       -4.850423     -4.850353   1.000000   1.000000
    2       -3.700337     -3.700260   1.000000   1.000000
    3       -3.550726     -3.550632   1.000000   1.000000
    4       -3.454096     -3.454009   1.000000   1.000000
    5       -2.993577     -2.993505   1.000000   1.000000
    6       -2.851065     -2.850944   1.000000   1.000000
    7       -2.557929     -2.557825   1.000000   1.000000
    8       -2.227814     -2.227733   1.000000   1.000000
    9       -2.117679     -2.117569   1.000000   1.000000
   10       -2.011945     -2.011840   1.000000   1.000000
   11       -1.775510     -1.775403   1.000000   1.000000
   12       -1.633226     -1.633116   1.000000   1.000000
   13       -1.601625     -1.601496   1.000000   1.000000
   14       -1.372290     -1.372194   1.000000   1.000000
   15       -1.136649     -1.136537   1.000000   1.000000
   16       -0.925723     -0.925589   1.000000   1.000000
   17       -0.793260     -0.793137   1.000000   1.000000
   18       -0.681273     -0.681136   1.000000   1.000000
   19       -0.411500     -0.411351   1.000000   1.000000
   20       -0.220122     -0.220005   1.000000   1.000000
   21        0.020570      0.020709   1.000000   1.000000
   22        0.263218      0.263365   1.000000   1.000000
   23        0.418621      0.418730   1.000000   1.000000
   24        0.590489      0.590585   1.000000   1.000000
   25        0.637663      0.637783   1.000000   1.000000
   26        0.683649      0.683774   1.000000   1.000000
   27        0.846724      0.846835   1.000000   1.000000
   28        0.928582      0.928702   1.000000   1.000000
   29        1.094828      1.094946   1.000000   1.000000
   30        1.160638      1.160746   1.000000   1.000000
   31        1.369298      1.369410   1.000000   1.000000
   32        1.636964      1.637073   1.000000   1.000000
   33        1.690459      1.690595   1.000000   1.000000
   34        1.856672      1.856760   1.000000   1.000000
   35        1.920936      1.921041   1.000000   1.000000
   36        2.008359      2.008466   1.000000   1.000000
   37        2.089114      2.089214   1.000000   1.000000
   38        2.140196      2.140303   1.000000   1.000000
   39        2.166862      2.166993   1.000000   1.000000
   40        2.262211      2.262310   1.000000   1.000000
   41        2.324155      2.324266   1.000000   1.000000
   42        2.427563      2.427669   1.000000   1.000000
   43        2.574807      2.574920   1.000000   1.000000
   44        2.662311      2.662448   1.000000   1.000000
   45        2.712314      2.712442   1.000000   1.000000
   46        2.830155      2.830284   1.000000   1.000000
   47        2.929532      2.929659   1.000000   1.000000
   48        2.942457      2.942590   1.000000   1.000000
   49        3.004760      3.004882   1.000000   1.000000
   50        3.173246      3.173379   1.000000   1.000000
   51        3.223353      3.223492   1.000000   1.000000
   52        3.320332      3.320451   1.000000   1.000000
   53        3.350424      3.350556   1.000000   1.000000
   54        3.532671      3.532807   1.000000   1.000000
   55        3.632827      3.632972   1.000000   1.000000
   56        3.666208      3.666336   1.000000   1.000000
   57        3.768751      3.768890   1.000000   1.000000
   58        3.874817      3.874975   1.000000   1.000000
   59        3.929000      3.929119   1.000000   1.000000
   60        3.990057      3.990195   1.000000   1.000000
   61        4.060235      4.060379   1.000000   1.000000
   62        4.078989      4.079146   1.000000   1.000000
   63        4.262230      4.262367   1.000000   1.000000
   64        4.427804      4.427926   1.000000   1.000000
   65        4.595116      4.595272   1.000000   1.000000
   66        4.707650      4.707801   1.000000   1.000000
   67        4.860147      4.860286   1.000000   1.000000
   68        4.962039      4.962177   1.000000   1.000000
   69        5.076978      5.077116   1.000000   1.000000
   70        5.119432      5.119578   1.000000   1.000000
   71        5.234694      5.234849   1.000000   1.000000
   72        5.373367      5.373534   1.000000   1.000000
   73        5.517423      5.517585   1.000000   1.000000
   74        5.528217      5.528363   1.000000   1.000000
   75        5.604940      5.605103   1.000000   1.000000
   76        5.701505      5.701681   1.000000   1.000000
   77        5.798214      5.798379   1.000000   1.000000
   78        5.932302      5.932458   1.000000   1.000000
   79        6.064940      6.065071   1.000000   1.000000
   80        6.244792      6.244957   1.000000   1.000000
   81        6.312045      6.312155   1.000000   1.000000
   82        6.424042      6.424154   1.000000   1.000000
   83        6.507587      6.507712   1.000000   1.000000
   84        6.627756      6.627905   1.000000   1.000000
   85        6.659563      6.659705   1.000000   1.000000
   86        6.748666      6.748807   1.000000   1.000000
   87        6.840021      6.840166   1.000000   1.000000
   88        6.914968      6.915094   1.000000   1.000000
   89        7.002734      7.002870   1.000000   1.000000
   90        7.061366      7.061509   1.000000   1.000000
   91        7.184560      7.184662   1.000000   1.000000
   92        7.212769      7.212879   1.000000   1.000000
   93        7.273677      7.273807   1.000000   1.000000
   94        7.368173      7.368276   1.000000   1.000000
   95        7.456346      7.456476   1.000000   1.000000
   96        7.525449      7.525575   1.000000   1.000000
   97        7.570428      7.570551   1.000000   1.000000
   98        7.608481      7.608631   1.000000   1.000000
   99        7.699552      7.699667   1.000000   1.000000
  100        7.710935      7.711065   1.000000   1.000000
  101        7.822968      7.823104   1.000000   1.000000
  102        7.839454      7.839596   1.000000   1.000000
  103        7.861140      7.861263   1.000000   1.000000
  104        7.960708      7.960860   1.000000   1.000000
  105        8.002614      8.002778   1.000000   1.000000
  106        8.111135      8.111269   1.000000   1.000000
  107        8.251995      8.252146   1.000000   1.000000
  108        8.259885      8.260030   1.000000   1.000000
  109        8.322716      8.322842   1.000000   1.000000
  110        8.402284      8.402421   1.000000   1.000000
  111        8.468477      8.468613   1.000000   1.000000
  112        8.537718      8.537851   1.000000   1.000000
  113        8.573995      8.574108   1.000000   1.000000
  114        8.599716      8.599867   1.000000   1.000000
  115        8.669665      8.669798   1.000000   1.000000
  116        8.689638      8.689757   1.000000   1.000000
  117        8.768200      8.768341   1.000000   1.000000
  118        8.788536      8.788667   1.000000   1.000000
  119        8.806224      8.806325   1.000000   1.000000
  120        8.902795      8.902925   1.000000   1.000000
  121        8.955002      8.955120   1.000000   1.000000
  122        9.042808      9.042950   1.000000   1.000000
  123        9.075556      9.075689   1.000000   1.000000
  124        9.087598      9.087750   1.000000   1.000000
  125        9.136775      9.136929   1.000000   1.000000
  126        9.181990      9.182114   1.000000   1.000000
  127        9.257318      9.257471   1.000000   1.000000
  128        9.320394      9.320524   1.000000   1.000000
  129        9.386819      9.386986   1.000000   1.000000
  130        9.525382      9.525539   1.000000   1.000000
  131        9.569488      9.569655   1.000000   1.000000
  132        9.667486      9.667636   1.000000   1.000000
  133        9.720362      9.720493   1.000000   1.000000
  134        9.772840      9.772988   1.000000   1.000000
  135        9.805564      9.805719   1.000000   1.000000
  136        9.862548      9.862690   1.000000   1.000000
  137        9.883825      9.883982   1.000000   1.000000
  138        9.954466      9.954597   1.000000   1.000000
  139       10.047820     10.047962   1.000000   1.000000
  140       10.128489     10.128649   1.000000   1.000000
  141       10.185193     10.185376   1.000000   1.000000
  142       10.250401     10.250561   1.000000   1.000000
  143       10.307114     10.307252   1.000000   1.000000
  144       10.434380     10.434519   1.000000   1.000000
  145       10.472865     10.473021   1.000000   1.000000
  146       10.577257     10.577387   1.000000   1.000000
  147       10.621659     10.621804   1.000000   1.000000
  148       10.644456     10.644619   1.000000   1.000000
  149       10.717230     10.717355   1.000000   1.000000
  150       10.785991     10.786137   1.000000   1.000000
  151       10.821879     10.822028   1.000000   1.000000
  152       10.921933     10.922086   1.000000   1.000000
  153       10.969260     10.969446   1.000000   1.000000
  154       11.040576     11.040696   1.000000   1.000000
  155       11.093393     11.093525   1.000000   1.000000
  156       11.203618     11.203753   1.000000   1.000000
  157       11.312837     11.312991   1.000000   1.000000
  158       11.328132     11.328293   1.000000   1.000000
  159       11.417164     11.417334   1.000000   1.000000
  160       11.470690     11.470840   1.000000   1.000000
  161       11.518582     11.518743   1.000000   1.000000
  162       11.598848     11.599023   1.000000   1.000000
  163       11.662663     11.662836   1.000000   1.000000
  164       11.689867     11.690018   1.000000   1.000000
  165       11.764379     11.764558   1.000000   1.000000
  166       11.832236     11.832385   1.000000   1.000000
  167       11.882243     11.882421   1.000000   1.000000
  168       11.948831     11.949002   1.000000   1.000000
  169       11.983623     11.983756   1.000000   1.000000
  170       12.085442     12.085595   1.000000   1.000000
  171       12.174700     12.174840   1.000000   1.000000
  172       12.184822     12.184971   1.000000   1.000000
  173       12.260164     12.260351   1.000000   1.000000
  174       12.294440     12.294598   1.000000   1.000000
  175       12.358855     12.359000   1.000000   1.000000
  176       12.385494     12.385671   1.000000   1.000000
  177       12.464982     12.465138   1.000000   1.000000
  178       12.499870     12.500020   1.000000   1.000000
  179       12.629541     12.629701   1.000000   1.000000
  180       12.665292     12.665439   1.000000   1.000000
  181       12.702761     12.702927   1.000000   1.000000
  182       12.748329     12.748499   1.000000   1.000000
  183       12.896452     12.896615   1.000000   1.000000
  184       12.916893     12.917089   1.000000   1.000000
  185       12.993419     12.993613   1.000000   1.000000
  186       13.039890     13.040063   1.000000   1.000000
  187       13.166649     13.166829   1.000000   1.000000
  188       13.227672     13.227853   1.000000   1.000000
  189       13.271399     13.271589   1.000000   1.000000
  190       13.484406     13.484572   1.000000   1.000000
  191       13.491237     13.491398   1.000000   1.000000
  192       13.622818     13.622963   1.000000   1.000000
  193       13.773925     13.774088   1.000000   1.000000
  194       13.791042     13.791190   1.000000   1.000000
  195       13.899274     13.899441   1.000000   1.000000
  196       13.976477     13.976641   1.000000   1.000000
  197       13.997636     13.997791   1.000000   1.000000
  198       14.038638     14.038839   0.999981   0.999981
  199       14.060982     14.061141   0.999760   0.999755
  200       14.154734     14.155126   0.799386   0.796264
  201       14.220710     14.221127   0.152290   0.149532
  202       14.242030     14.242214   0.051584   0.051038
  203       14.308828     14.308995   0.000217   0.000213
  204       14.399046     14.399221   0.000000   0.000000
  205       14.477631     14.477808   0.000000   0.000000
  206       14.556262     14.556432   0.000000   0.000000
  207       14.583121     14.583272   0.000000   0.000000
  208       14.607351     14.607506   0.000000   0.000000
  209       14.627735     14.627888   0.000000   0.000000
  210       14.692843     14.693015   0.000000   0.000000
  211       14.801267     14.801425   0.000000   0.000000
  212       14.823012     14.823139   0.000000   0.000000
  213       14.872953     14.873084   0.000000   0.000000
  214       14.941505     14.941640   0.000000   0.000000
  215       15.033146     15.033307   0.000000   0.000000
  216       15.073742     15.073873   0.000000   0.000000
  217       15.126254     15.126406   0.000000   0.000000
  218       15.178136     15.178272   0.000000   0.000000
  219       15.198046     15.198190   0.000000   0.000000
  220       15.245316     15.245479   0.000000   0.000000
  221       15.275459     15.275620   0.000000   0.000000
  222       15.351696     15.351829   0.000000   0.000000
  223       15.381613     15.381752   0.000000   0.000000
  224       15.462457     15.462614   0.000000   0.000000
  225       15.506281     15.506424   0.000000   0.000000
  226       15.531121     15.531279   0.000000   0.000000
  227       15.609036     15.609180   0.000000   0.000000
  228       15.663114     15.663254   0.000000   0.000000
  229       15.691708     15.691855   0.000000   0.000000
  230       15.729341     15.729487   0.000000   0.000000
  231       15.763216     15.763368   0.000000   0.000000
  232       15.801911     15.802063   0.000000   0.000000
  233       15.814714     15.814851   0.000000   0.000000
  234       15.895068     15.895209   0.000000   0.000000
  235       16.003600     16.003760   0.000000   0.000000
  236       16.055654     16.055797   0.000000   0.000000
  237       16.074981     16.075133   0.000000   0.000000
  238       16.148978     16.149119   0.000000   0.000000
  239       16.228037     16.228185   0.000000   0.000000
  240       16.239268     16.239415   0.000000   0.000000
  241       16.302604     16.302748   0.000000   0.000000
  242       16.331584     16.331727   0.000000   0.000000
  243       16.367153     16.367310   0.000000   0.000000
  244       16.442173     16.442308   0.000000   0.000000
  245       16.562014     16.562166   0.000000   0.000000
  246       16.580296     16.580443   0.000000   0.000000
  247       16.602087     16.602243   0.000000   0.000000
  248       16.721322     16.721466   0.000000   0.000000
  249       16.733799     16.733982   0.000000   0.000000
  250       16.777053     16.777202   0.000000   0.000000
  251       16.810844     16.811002   0.000000   0.000000
  252       16.908002     16.908167   0.000000   0.000000
  253       16.932545     16.932725   0.000000   0.000000
  254       16.983548     16.983677   0.000000   0.000000
  255       17.032017     17.032177   0.000000   0.000000
  256       17.108424     17.108574   0.000000   0.000000
  257       17.182802     17.182966   0.000000   0.000000
  258       17.224003     17.224169   0.000000   0.000000
  259       17.242761     17.242927   0.000000   0.000000
  260       17.287057     17.287204   0.000000   0.000000
  261       17.302587     17.302748   0.000000   0.000000
  262       17.408940     17.409100   0.000000   0.000000
  263       17.434624     17.434777   0.000000   0.000000
  264       17.459988     17.460170   0.000000   0.000000
  265       17.538489     17.538640   0.000000   0.000000
  266       17.566210     17.566362   0.000000   0.000000
  267       17.592518     17.592668   0.000000   0.000000
  268       17.689554     17.689720   0.000000   0.000000
  269       17.781657     17.781820   0.000000   0.000000
  270       17.804544     17.804700   0.000000   0.000000
  271       17.930412     17.930570   0.000000   0.000000
  272       17.950703     17.950888   0.000000   0.000000
  273       17.992034     17.992204   0.000000   0.000000
  274       18.064575     18.064750   0.000000   0.000000
  275       18.133482     18.133680   0.000000   0.000000
  276       18.167124     18.167328   0.000000   0.000000
  277       18.195507     18.195671   0.000000   0.000000
  278       18.208153     18.208355   0.000000   0.000000
  279       18.296218     18.296392   0.000000   0.000000
  280       18.386083     18.386269   0.000000   0.000000
  281       18.440388     18.440583   0.000000   0.000000
  282       18.472994     18.473134   0.000000   0.000000
  283       18.583276     18.583449   0.000000   0.000000
  284       18.618409     18.618600   0.000000   0.000000
  285       18.646029     18.646200   0.000000   0.000000
  286       18.683257     18.683428   0.000000   0.000000
  287       18.757815     18.757978   0.000000   0.000000
  288       18.850769     18.850932   0.000000   0.000000
  289       18.902287     18.902447   0.000000   0.000000
  290       18.919553     18.919754   0.000000   0.000000
  291       18.958327     18.958483   0.000000   0.000000
  292       19.024195     19.024430   0.000000   0.000000
  293       19.117427     19.118030   0.000000   0.000000
  294       19.140922     19.141479   0.000000   0.000000
  295       19.206833     19.206646   0.000000   0.000000
  296       19.226939     19.227385   0.000000   0.000000
  297       19.269598     19.277524   0.000000   0.000000
  298       19.306682     19.306916   0.000000   0.000000
  299       19.374441     19.373364   0.000000   0.000000
  300       19.410562     19.424242   0.000000   0.000000
  301       19.535664     19.522810   0.000000   0.000000
  302       19.556321     19.539905   0.000000   0.000000
  303       19.645445     19.643435   0.000000   0.000000
  304       19.769960     19.754366   0.000000   0.000000
