       N       E                     dE             d eps       ncg     rms          rms(c)
DAV:   1     0.927336112718E+03    0.92734E+03   -0.10479E+05  1216   0.637E+02
DAV:   2    -0.204275624973E+03   -0.11316E+04   -0.10512E+04  1472   0.155E+02
DAV:   3    -0.266107110020E+03   -0.61831E+02   -0.59178E+02  1520   0.320E+01
DAV:   4    -0.267559600863E+03   -0.14525E+01   -0.14358E+01  1536   0.508E+00
DAV:   5    -0.267601283105E+03   -0.41682E-01   -0.41569E-01  1536   0.748E-01    0.813E+01
RMM:   6    -0.250595390739E+03    0.17006E+02   -0.94776E+01  1377   0.735E+00    0.510E+01
RMM:   7    -0.249798609226E+03    0.79678E+00   -0.15452E+01  1285   0.359E+00    0.304E+01
RMM:   8    -0.251992301150E+03   -0.21937E+01   -0.54593E+00  1357   0.235E+00    0.521E+00
RMM:   9    -0.252181384647E+03   -0.18908E+00   -0.91854E-01  1419   0.110E+00    0.229E+00
RMM:  10    -0.252196589132E+03   -0.15204E-01   -0.18963E-01  1424   0.438E-01    0.128E+00
RMM:  11    -0.252217367055E+03   -0.20778E-01   -0.48040E-02  1451   0.219E-01    0.724E-01
RMM:  12    -0.252226682310E+03   -0.93153E-02   -0.13001E-02  1470   0.122E-01    0.306E-01
RMM:  13    -0.252229176892E+03   -0.24946E-02   -0.35064E-03  1462   0.655E-02    0.128E-01
RMM:  14    -0.252229812083E+03   -0.63519E-03   -0.10116E-03  1463   0.353E-02    0.652E-02
RMM:  15    -0.252230016028E+03   -0.20394E-03   -0.35296E-04  1446   0.207E-02    0.363E-02
RMM:  16    -0.252230089069E+03   -0.73041E-04   -0.14413E-04  1416   0.135E-02    0.184E-02
RMM:  17    -0.252230103754E+03   -0.14686E-04   -0.40742E-05  1173   0.715E-03    0.802E-03
RMM:  18    -0.252230103997E+03   -0.24235E-06   -0.92570E-06   765   0.375E-03
   1 F= -.25223010E+03 E0= -.25220808E+03  d E =-.440499E-01  mag=     0.0042
