 vasp.5.4.4.18Apr17-6-g9f103f2a35 (build Sep 16 2020 16:20:45) complex          
  
 executed on             LinuxIFC date 2021.08.05  12:00:42
 running on   16 total cores
 distrk:  each k-point on   16 cores,    1 groups
 distr:  one band on NCORES_PER_BAND=   1 cores,   16 groups


--------------------------------------------------------------------------------------------------------


 INCAR:
 POTCAR:    PAW_PBE Si 05Jan2001                  

 ----------------------------------------------------------------------------- 
|                                                                             |
|           W    W    AA    RRRRR   N    N  II  N    N   GGGG   !!!           |
|           W    W   A  A   R    R  NN   N  II  NN   N  G    G  !!!           |
|           W    W  A    A  R    R  N N  N  II  N N  N  G       !!!           |
|           W WW W  AAAAAA  RRRRR   N  N N  II  N  N N  G  GGG   !            |
|           WW  WW  A    A  R   R   N   NN  II  N   NN  G    G                |
|           W    W  A    A  R    R  N    N  II  N    N   GGGG   !!!           |
|                                                                             |
|      For optimal performance we recommend to set                            |
|        NCORE= 4 - approx SQRT( number of cores)                             |
|      NCORE specifies how many cores store one orbital (NPAR=cpu/NCORE).     |
|      This setting can  greatly improve the performance of VASP for DFT.     |
|      The default,   NCORE=1            might be grossly inefficient         |
|      on modern multi-core architectures or massively parallel machines.     |
|      Do your own testing !!!!                                               |
|      Unfortunately you need to use the default for GW and RPA calculations. |
|      (for HF NCORE is supported but not extensively tested yet)             |
|                                                                             |
 ----------------------------------------------------------------------------- 

 POTCAR:    PAW_PBE Si 05Jan2001                  
   SHA256 =  79d9987ad8750f624c4d6acb2a16d13abf6a777132adc04dc6c8399be72b42bb Si
   COPYR  = (c) Copyright 05Jan2001 Georg Kresse                                
   COPYR  = This file is part of the software VASP. Any use, copying, and all ot
   COPYR  = If you do not have a valid VASP license, you may not use, copy or di
   VRHFIN =Si: s2p2                                                             
   LEXCH  = PE                                                                  
   EATOM  =   103.0669 eV,    7.5752 Ry                                         
                                                                                
   TITEL  = PAW_PBE Si 05Jan2001                                                
   LULTRA =        F    use ultrasoft PP ?                                      
   IUNSCR =        1    unscreen: 0-lin 1-nonlin 2-no                           
   RPACOR =    1.500    partial core radius                                     
   POMASS =   28.085; ZVAL   =    4.000    mass and valenz                      
   RCORE  =    1.900    outmost cutoff radius                                   
   RWIGS  =    2.480; RWIGS  =    1.312    wigner-seitz radius (au A)           
   ENMAX  =  245.345; ENMIN  =  184.009 eV                                      
   ICORE  =        2    local potential                                         
   LCOR   =        T    correct aug charges                                     
   LPAW   =        T    paw PP                                                  
   EAUG   =  322.069                                                            
   DEXC   =    0.000                                                            
   RMAX   =    1.950    core radius for proj-oper                               
   RAUG   =    1.300    factor for augmentation sphere                          
   RDEP   =    1.993    radius for radial grids                                 
   RDEPT  =    1.837    core radius for aug-charge                              
                                                                                
   Atomic configuration                                                         
    6 entries                                                                   
     n  l   j            E        occ.                                          
     1  0  0.50     -1785.8828   2.0000                                         
     2  0  0.50      -139.4969   2.0000                                         
     2  1  1.50       -95.5546   6.0000                                         
     3  0  0.50       -10.8127   2.0000                                         
     3  1  0.50        -4.0811   2.0000                                         
     3  2  1.50        -4.0817   0.0000                                         
   Description                                                                  
     l       E           TYP  RCUT    TYP  RCUT                                 
     0    -10.8127223     23  1.900                                             
     0     -7.6451159     23  1.900                                             
     1     -4.0811372     23  1.900                                             
     1      2.4879257     23  1.900                                             
     2     -4.0817478      7  1.900                                             
  local pseudopotential read in
  partial core-charges read in
  partial kinetic energy density read in
  atomic valenz-charges read in
  non local Contribution for L=           0  read in
    real space projection operators read in
  non local Contribution for L=           0  read in
    real space projection operators read in
  non local Contribution for L=           1  read in
    real space projection operators read in
  non local Contribution for L=           1  read in
    real space projection operators read in
    PAW grid and wavefunctions read in
 
   number of l-projection  operators is LMAX  =           4
   number of lm-projection operators is LMMAX =           8
 
 Optimization of the real space projectors (new method)

 maximal supplied QI-value         = 19.84
 optimisation between [QCUT,QGAM] = [  7.94, 15.87] = [ 17.64, 70.56] Ry 
 Optimized for a Real-space Cutoff    1.57 Angstroem

   l    n(q)    QCUT    max X(q) W(low)/X(q) W(high)/X(q)  e(spline) 
   0      7     7.937   159.560    0.16E-03    0.38E-03    0.13E-06
   0      7     7.937   115.863    0.15E-03    0.37E-03    0.13E-06
   1      7     7.937    88.339    0.42E-03    0.67E-03    0.13E-06
   1      7     7.937    48.592    0.41E-03    0.65E-03    0.13E-06
  PAW_PBE Si 05Jan2001                  :
 energy of atom  1       EATOM= -103.0669
 kinetic energy error for atom=    0.0056 (will be added to EATOM!!)
 
 
 POSCAR: Si100                                   
  positions in direct lattice
  No initial velocities read in
 exchange correlation table for  LEXCH =        8
   RHO(1)=    0.500       N(1)  =     2000
   RHO(2)=  100.500       N(2)  =     4000
 


--------------------------------------------------------------------------------------------------------


 ion  position               nearest neighbor table
   1  0.800  0.600  0.200-   8 2.04  38 2.04   7 2.89  58 2.89  41 2.89   2 2.89  67 2.89  92 2.89
                            79 2.89  26 2.89  94 2.89
   2  0.800  0.800  0.000-  21 2.04  36 2.04  50 2.04  70 2.04  41 2.89   6 2.89  61 2.89  69 2.89
                             1 2.89  79 2.89  10 2.89  56 2.89  83 2.89
   3  0.600  0.200  0.400-  12 2.04  81 2.04  31 2.04  48 2.04  19 2.04  47 2.89  92 2.89  14 2.89
                            78 2.89  42 2.89  86 2.89  90 2.89  25 2.89  60 2.89   5 2.89  45 2.89
   4  0.800  0.200  0.800-  14 2.04  71 2.04  13 2.04  83 2.04  48 2.89  15 2.89  23 2.89  30 2.89
                            88 2.89  94 2.89  50 2.89  96 2.89
   5  0.400  0.000  0.400-   9 2.04  16 2.04  19 2.04  31 2.04  76 2.04  91 2.04  66 2.89  11 2.89
                            37 2.89  82 2.89  86 2.89  90 2.89  62 2.89  60 2.89   3 2.89  20 2.89
   6  0.600  0.800  0.800-  70 2.04  74 2.04  80 2.04  30 2.04  21 2.04  89 2.04  63 2.89  69 2.89
                             2 2.89  41 2.89  83 2.89  60 2.89  93 2.89  61 2.89  77 2.89  53 2.89
   7  0.600  0.600  0.400-   8 2.04  20 2.04  38 2.04  24 2.04  63 2.04  81 2.04   1 2.89  58 2.89
                            76 2.89  74 2.89  92 2.89  42 2.89  84 2.89  78 2.89
   8  0.600  0.600  0.200-   1 2.04   7 2.04  41 2.04  92 2.04  20 2.89  38 2.89  21 2.89  24 2.89
                            81 2.89  37 2.89  55 2.89  87 2.89  75 2.89
   9  0.400  0.000  0.200-   5 2.04  66 2.04  40 2.04  37 2.04  86 2.04  90 2.04  16 2.89  64 2.89
                            31 2.89  76 2.89  19 2.89  27 2.89 100 2.89  61 2.89  77 2.89  85 2.89
  10  0.000  0.000  0.000-  27 2.04  36 2.04  43 2.04  50 2.04  96 2.04  33 2.89  13 2.89  39 2.89
                            18 2.89   2 2.89  56 2.89  66 2.89  83 2.89  32 2.89
  11  0.200  0.200  0.400-  19 2.04  28 2.04 100 2.04  68 2.04  16 2.04  78 2.89  86 2.89  35 2.89
                            66 2.89   5 2.89  39 2.89  45 2.89  46 2.89  62 2.89  15 2.89
  12  0.800  0.200  0.400-   3 2.04  47 2.04  25 2.04  14 2.04  81 2.89  31 2.89  48 2.89  39 2.89
                            15 2.89  88 2.89
  13  0.000  0.200  0.800-  15 2.04   4 2.04  51 2.04  96 2.04  22 2.89  17 2.89  68 2.89  14 2.89
                            18 2.89  10 2.89  83 2.89  32 2.89
  14  0.800  0.200  0.600-   4 2.04  48 2.04  15 2.04  12 2.04  88 2.04  71 2.89  42 2.89   3 2.89
                            60 2.89  22 2.89  83 2.89  13 2.89  17 2.89  25 2.89
  15  0.000  0.200  0.600-  13 2.04  22 2.04  17 2.04  14 2.04  68 2.04  46 2.89  51 2.89   4 2.89
                            12 2.89  62 2.89  11 2.89  88 2.89
  16  0.200  0.000  0.400-   5 2.04  66 2.04  62 2.04  11 2.04  82 2.04   9 2.89  64 2.89  43 2.89
                            76 2.89  19 2.89  91 2.89 100 2.89  17 2.89  95 2.89  99 2.89  68 2.89
  17  0.000  0.000  0.600-  15 2.04  62 2.04  88 2.04  98 2.04  13 2.89  83 2.89  32 2.89  56 2.89
                            68 2.89  14 2.89  16 2.89  95 2.89  25 2.89  99 2.89
  18  0.200  0.200  0.000-  85 2.04  97 2.04  27 2.04  96 2.04  51 2.04 100 2.04  29 2.89  86 2.89
                            49 2.89  35 2.89  40 2.89  39 2.89  13 2.89  32 2.89  10 2.89  66 2.89
  19  0.400  0.200  0.400-  11 2.04  78 2.04  86 2.04  45 2.04   5 2.04   3 2.04  28 2.89  55 2.89
                           100 2.89  16 2.89  81 2.89   9 2.89  68 2.89  31 2.89  91 2.89  48 2.89
  20  0.600  0.800  0.400-   7 2.04  58 2.04  31 2.04  74 2.04  76 2.04  38 2.89   8 2.89  24 2.89
                            63 2.89  37 2.89  25 2.89  90 2.89   5 2.89  60 2.89  93 2.89
  21  0.600  0.800  0.000-   2 2.04  41 2.04   6 2.04  61 2.04  77 2.04   8 2.89  70 2.89  50 2.89
                            80 2.89  87 2.89  37 2.89  40 2.89  30 2.89  89 2.89  90 2.89
  22  0.000  0.400  0.600-  15 2.04  44 2.04  46 2.04  13 2.89  14 2.89  54 2.89  68 2.89  57 2.89
                            67 2.89  28 2.89
  23  0.600  0.200  0.000-  75 2.04  71 2.04  61 2.04  85 2.04  94 2.89  29 2.89  47 2.89  50 2.89
                            92 2.89   4 2.89  30 2.89  86 2.89  90 2.89  49 2.89  40 2.89
  24  0.400  0.600  0.400-  34 2.04  76 2.04   7 2.04  78 2.04  84 2.04  52 2.89  82 2.89  37 2.89
                            57 2.89   8 2.89  20 2.89  28 2.89  55 2.89  93 2.89  81 2.89  63 2.89
  25  0.800  0.000  0.400-  31 2.04  12 2.04  58 2.04  88 2.04  90 2.89  47 2.89  20 2.89  60 2.89
                             3 2.89  43 2.89  14 2.89  17 2.89  95 2.89
  26  0.000  0.400  0.200-  39 2.04  35 2.04  28 2.89  47 2.89  67 2.89  96 2.89 100 2.89  79 2.89
                            94 2.89  52 2.89  97 2.89   1 2.89
  27  0.200  0.000  0.000-  40 2.04  18 2.04  32 2.04  33 2.04  10 2.04  66 2.04  53 2.89   9 2.89
                            77 2.89  85 2.89  64 2.89  43 2.89  73 2.89  51 2.89  36 2.89  96 2.89
  28  0.200  0.400  0.400-  11 2.04  35 2.04  78 2.04  46 2.04  34 2.04  55 2.89  19 2.89 100 2.89
                            26 2.89  68 2.89  24 2.89  52 2.89  22 2.89  57 2.89  67 2.89
  29  0.400  0.400  0.000-  85 2.04  97 2.04  75 2.04  55 2.04  87 2.04  65 2.04  18 2.89  49 2.89
                            23 2.89  86 2.89  59 2.89  35 2.89  92 2.89  41 2.89
  30  0.600  0.000  0.800-  60 2.04  83 2.04   6 2.04  61 2.04  71 2.04  53 2.04  88 2.89  70 2.89
                             4 2.89  74 2.89  48 2.89  50 2.89  91 2.89  21 2.89  49 2.89  23 2.89
  31  0.600  0.000  0.400-  25 2.04  90 2.04  20 2.04   3 2.04  60 2.04   5 2.04  58 2.89   9 2.89
                            88 2.89  12 2.89  74 2.89  76 2.89  19 2.89  48 2.89  91 2.89
  32  0.200  0.000  0.800-  53 2.04  62 2.04  27 2.04  51 2.04  73 2.04  91 2.89  49 2.89  68 2.89
                            17 2.89  89 2.89  40 2.89  99 2.89  18 2.89  13 2.89  33 2.89  56 2.89
  33  0.200  0.800  0.000-  59 2.04  77 2.04  27 2.04  64 2.04  73 2.04  36 2.04  87 2.89  72 2.89
                            52 2.89  37 2.89  79 2.89  40 2.89  89 2.89  32 2.89  66 2.89  56 2.89
  34  0.200  0.600  0.400-  24 2.04  52 2.04  82 2.04  57 2.04  67 2.04  28 2.04  76 2.89  64 2.89
                            78 2.89  35 2.89  84 2.89  95 2.89  99 2.89  44 2.89  46 2.89
  35  0.200  0.400  0.200-  28 2.04  55 2.04 100 2.04  26 2.04  97 2.04  52 2.04  86 2.89  11 2.89
                            78 2.89  34 2.89  39 2.89  18 2.89  29 2.89  59 2.89
  36  0.000  0.800  0.000-  79 2.04  10 2.04  33 2.04  56 2.04   2 2.04  59 2.89  54 2.89  43 2.89
                            50 2.89  64 2.89  70 2.89  73 2.89  27 2.89
  37  0.400  0.800  0.200-  64 2.04  76 2.04   9 2.04  77 2.04  52 2.89  24 2.89  82 2.89  20 2.89
                            66 2.89   8 2.89  33 2.89   5 2.89  87 2.89  40 2.89  21 2.89  90 2.89
  38  0.800  0.600  0.400-   1 2.04   7 2.04  58 2.04  67 2.04   8 2.89  20 2.89  63 2.89  81 2.89
                            95 2.89  44 2.89
  39  0.000  0.200  0.200-  26 2.04  43 2.04  47 2.04  96 2.04 100 2.04  11 2.89  35 2.89  12 2.89
                            66 2.89  10 2.89  18 2.89
  40  0.400  0.000  0.000-  27 2.04   9 2.04  53 2.04  61 2.04  77 2.04  85 2.04  32 2.89  66 2.89
                            33 2.89  18 2.89  30 2.89  23 2.89  21 2.89  37 2.89  49 2.89  86 2.89
  41  0.600  0.600  0.000-  21 2.04   8 2.04  75 2.04  80 2.04  87 2.04   2 2.89   1 2.89  77 2.89
                             6 2.89  69 2.89  94 2.89  92 2.89  29 2.89
  42  0.600  0.400  0.600-  48 2.04  63 2.04  81 2.04  71 2.89  14 2.89  65 2.89   3 2.89  80 2.89
                            45 2.89   7 2.89  78 2.89  84 2.89
  43  0.000  0.000  0.200-  10 2.04  39 2.04  66 2.04  16 2.89  25 2.89  95 2.89  47 2.89  50 2.89
                            64 2.89  36 2.89  27 2.89  96 2.89 100 2.89
  44  0.000  0.600  0.600-  54 2.04  98 2.04  57 2.04  67 2.04  22 2.04  56 2.89  72 2.89  95 2.89
                            69 2.89  99 2.89  34 2.89  38 2.89  46 2.89
  45  0.400  0.200  0.600-  49 2.04  68 2.04  19 2.04  48 2.04  91 2.04  65 2.89  46 2.89  51 2.89
                            62 2.89  11 2.89  42 2.89  71 2.89  78 2.89  53 2.89   3 2.89   5 2.89
  46  0.200  0.400  0.600-  68 2.04  28 2.04  57 2.04  22 2.04  45 2.89  65 2.89  51 2.89  15 2.89
                            11 2.89  72 2.89  78 2.89  84 2.89  34 2.89  44 2.89
  47  0.800  0.200  0.200-  12 2.04  39 2.04   3 2.89  92 2.89  26 2.89  23 2.89  90 2.89  25 2.89
                            94 2.89  50 2.89  43 2.89  96 2.89
  48  0.600  0.200  0.600-  14 2.04  42 2.04  71 2.04  45 2.04  60 2.04   3 2.04   4 2.89  49 2.89
                            12 2.89  30 2.89  81 2.89  88 2.89  31 2.89  19 2.89  91 2.89
  49  0.400  0.200  0.800-  45 2.04  51 2.04  65 2.04  53 2.04  71 2.04  85 2.04  68 2.89  18 2.89
                            48 2.89  29 2.89  32 2.89  91 2.89  30 2.89  23 2.89  40 2.89
  50  0.800  0.000  0.000-  61 2.04  10 2.04   2 2.04  83 2.04  30 2.89  21 2.89  23 2.89  90 2.89
                            47 2.89   4 2.89  70 2.89  36 2.89  43 2.89  96 2.89
  51  0.200  0.200  0.800-  49 2.04  68 2.04  32 2.04  13 2.04  18 2.04  45 2.89  65 2.89  46 2.89
                            62 2.89  15 2.89  53 2.89  85 2.89  97 2.89  96 2.89  27 2.89
  52  0.200  0.600  0.200-  34 2.04  64 2.04  59 2.04  35 2.04  24 2.89  37 2.89  82 2.89  33 2.89
                            28 2.89  67 2.89  55 2.89  87 2.89  26 2.89  79 2.89  97 2.89
  53  0.400  0.000  0.800-  32 2.04  91 2.04  40 2.04  49 2.04  89 2.04  30 2.04  62 2.89  60 2.89
                            45 2.89  73 2.89  27 2.89  51 2.89  93 2.89  77 2.89  85 2.89   6 2.89
  54  0.000  0.600  0.800-  44 2.04  56 2.04  69 2.04  72 2.04  79 2.04  98 2.89  70 2.89  36 2.89
                            73 2.89  57 2.89  22 2.89  59 2.89
  55  0.400  0.400  0.200-  35 2.04  78 2.04  86 2.04  29 2.04  92 2.04  28 2.89  19 2.89 100 2.89
                            85 2.89  52 2.89  24 2.89  97 2.89  81 2.89   8 2.89  75 2.89  87 2.89
  56  0.000  0.800  0.800-  54 2.04  98 2.04  70 2.04  73 2.04  36 2.04  44 2.89  72 2.89  69 2.89
                            79 2.89  17 2.89  99 2.89  32 2.89  33 2.89  83 2.89  10 2.89   2 2.89
  57  0.200  0.600  0.600-  72 2.04  84 2.04  99 2.04  34 2.04  44 2.04  46 2.04  93 2.89  73 2.89
                            24 2.89  54 2.89  98 2.89  82 2.89  28 2.89  67 2.89  22 2.89
  58  0.800  0.800  0.400-  20 2.04  38 2.04  25 2.04  95 2.04   1 2.89   7 2.89  67 2.89  74 2.89
                            31 2.89  88 2.89  98 2.89
  59  0.200  0.600  0.000-  33 2.04  87 2.04  72 2.04  79 2.04  52 2.04  97 2.04  77 2.89  29 2.89
                            64 2.89  36 2.89  73 2.89  54 2.89  35 2.89
  60  0.600  0.000  0.600-  30 2.04  88 2.04  48 2.04  74 2.04  31 2.04  91 2.04  83 2.89  71 2.89
                             6 2.89  14 2.89  25 2.89  53 2.89  45 2.89   3 2.89   5 2.89  20 2.89
  61  0.600  0.000  0.000-  50 2.04  23 2.04  30 2.04  40 2.04  21 2.04  90 2.04  83 2.89   2 2.89
                            53 2.89  71 2.89  77 2.89   9 2.89  85 2.89   6 2.89
  62  0.200  0.000  0.600-  32 2.04  91 2.04  16 2.04  68 2.04  17 2.04  99 2.04  53 2.89  45 2.89
                            73 2.89  51 2.89  93 2.89   5 2.89  11 2.89  15 2.89  98 2.89  82 2.89
  63  0.600  0.600  0.600-  74 2.04  80 2.04   7 2.04  42 2.04  84 2.04  69 2.89   6 2.89  38 2.89
                            20 2.89  93 2.89  24 2.89  81 2.89
  64  0.200  0.800  0.200-  37 2.04  52 2.04  82 2.04  66 2.04  33 2.04  76 2.89  34 2.89   9 2.89
                            16 2.89  77 2.89  59 2.89  95 2.89  27 2.89  43 2.89  36 2.89
  65  0.400  0.400  0.800-  49 2.04  29 2.04  46 2.89  45 2.89  51 2.89  42 2.89  71 2.89  72 2.89
                            84 2.89  85 2.89  97 2.89  80 2.89  87 2.89  75 2.89
  66  0.200  0.000  0.200-   9 2.04  16 2.04  27 2.04  43 2.04  64 2.04 100 2.04   5 2.89  11 2.89
                            37 2.89  82 2.89  86 2.89  40 2.89  18 2.89  39 2.89  10 2.89  33 2.89
  67  0.000  0.600  0.400-  95 2.04  38 2.04  44 2.04  34 2.04   1 2.89  52 2.89  58 2.89  82 2.89
                            26 2.89  98 2.89  28 2.89  57 2.89  22 2.89
  68  0.200  0.200  0.600-  45 2.04  46 2.04  51 2.04  15 2.04  11 2.04  62 2.04  49 2.89  13 2.89
                            19 2.89  22 2.89  28 2.89  32 2.89  91 2.89  16 2.89  17 2.89
  69  0.800  0.600  0.800-  70 2.04  80 2.04  54 2.04   6 2.89  63 2.89  56 2.89  41 2.89  44 2.89
                             2 2.89  79 2.89  94 2.89
  70  0.800  0.800  0.800-   6 2.04  69 2.04  56 2.04   2 2.04  83 2.04  80 2.89  74 2.89  54 2.89
                            21 2.89  30 2.89  88 2.89  98 2.89  36 2.89  50 2.89
  71  0.600  0.200  0.800-   4 2.04  48 2.04  30 2.04  23 2.04  49 2.04  14 2.89  42 2.89  45 2.89
                            60 2.89  65 2.89  75 2.89  83 2.89  61 2.89  53 2.89  85 2.89
  72  0.200  0.600  0.800-  57 2.04  73 2.04  59 2.04  54 2.04  84 2.89  89 2.89  99 2.89  65 2.89
                            33 2.89  56 2.89  87 2.89  44 2.89  46 2.89  97 2.89  79 2.89
  73  0.200  0.800  0.800-  72 2.04  89 2.04  99 2.04  32 2.04  33 2.04  56 2.04  93 2.89  57 2.89
                            53 2.89  77 2.89  54 2.89  59 2.89  98 2.89  62 2.89  27 2.89  36 2.89
  74  0.600  0.800  0.600-   6 2.04  63 2.04  60 2.04  20 2.04  93 2.04  80 2.89  70 2.89  58 2.89
                             7 2.89  84 2.89  88 2.89  89 2.89  30 2.89  76 2.89  91 2.89  31 2.89
  75  0.600  0.400  0.000-  23 2.04  94 2.04  41 2.04  92 2.04  29 2.04  71 2.89  85 2.89  80 2.89
                            55 2.89  87 2.89  65 2.89   8 2.89
  76  0.400  0.800  0.400-  24 2.04  37 2.04  82 2.04  20 2.04   5 2.04  93 2.04  34 2.89  64 2.89
                             9 2.89  16 2.89  84 2.89   7 2.89  99 2.89  91 2.89  31 2.89  74 2.89
  77  0.400  0.800  0.000-  33 2.04  87 2.04  37 2.04  40 2.04  21 2.04  89 2.04  59 2.89  64 2.89
                            73 2.89  41 2.89  27 2.89   9 2.89  53 2.89   6 2.89  61 2.89
  78  0.400  0.400  0.400-  19 2.04  28 2.04  55 2.04  24 2.04  81 2.04  11 2.89  35 2.89  86 2.89
                            46 2.89  34 2.89   3 2.89  45 2.89  92 2.89  84 2.89   7 2.89  42 2.89
  79  0.000  0.600  0.000-  36 2.04  54 2.04  59 2.04  33 2.89  56 2.89   2 2.89   1 2.89  26 2.89
                            52 2.89  69 2.89  72 2.89  94 2.89  97 2.89
  80  0.600  0.600  0.800-   6 2.04  63 2.04  69 2.04  41 2.04  70 2.89  74 2.89  21 2.89  42 2.89
                            84 2.89  89 2.89  65 2.89  87 2.89  75 2.89
  81  0.600  0.400  0.400-   3 2.04  92 2.04  42 2.04  78 2.04   7 2.04  12 2.89   8 2.89  48 2.89
                            55 2.89  19 2.89  38 2.89  24 2.89  63 2.89
  82  0.200  0.800  0.400-  34 2.04  64 2.04  76 2.04  16 2.04  95 2.04  99 2.04  37 2.89  52 2.89
                            24 2.89  67 2.89  57 2.89  93 2.89   5 2.89  66 2.89  98 2.89  62 2.89
  83  0.800  0.000  0.800-  30 2.04  88 2.04  50 2.04  70 2.04   4 2.04  60 2.89  17 2.89  61 2.89
                             6 2.89  71 2.89  14 2.89  13 2.89   2 2.89  56 2.89  10 2.89
  84  0.400  0.600  0.600-  57 2.04  93 2.04  63 2.04  24 2.04  89 2.89  72 2.89  99 2.89  74 2.89
                            76 2.89  80 2.89  46 2.89  65 2.89  34 2.89   7 2.89  78 2.89  42 2.89
  85  0.400  0.200  0.000-  18 2.04  29 2.04  23 2.04  40 2.04  49 2.04  86 2.04  97 2.89  55 2.89
                            65 2.89  75 2.89  27 2.89  51 2.89 100 2.89   9 2.89  61 2.89  53 2.89
  86  0.400  0.200  0.200-  19 2.04  55 2.04 100 2.04  85 2.04   9 2.04  78 2.89  35 2.89  11 2.89
                            18 2.89  66 2.89   3 2.89  29 2.89  92 2.89   5 2.89  90 2.89  23 2.89
  87  0.400  0.600  0.000-  59 2.04  77 2.04  29 2.04  41 2.04  33 2.89  52 2.89  37 2.89  72 2.89
                            21 2.89  89 2.89  97 2.89  75 2.89   8 2.89  80 2.89  65 2.89  55 2.89
  88  0.800  0.000  0.600-  60 2.04  83 2.04  25 2.04  14 2.04  17 2.04  30 2.89  48 2.89   4 2.89
                            70 2.89  74 2.89  31 2.89  12 2.89  58 2.89  15 2.89  98 2.89
  89  0.400  0.800  0.800-  73 2.04  93 2.04   6 2.04  77 2.04  53 2.04  84 2.89  72 2.89  99 2.89
                            80 2.89  32 2.89  87 2.89  91 2.89  74 2.89  33 2.89  40 2.89  21 2.89
  90  0.600  0.000  0.200-  31 2.04   9 2.04  61 2.04  25 2.89   5 2.89   3 2.89  47 2.89  50 2.89
                            20 2.89  40 2.89  21 2.89  23 2.89  37 2.89  86 2.89
  91  0.400  0.000  0.600-  53 2.04  62 2.04   5 2.04  60 2.04  45 2.04  93 2.04  32 2.89  30 2.89
                            49 2.89  68 2.89  89 2.89  16 2.89  99 2.89  74 2.89  76 2.89  48 2.89
  92  0.600  0.400  0.200-  81 2.04  55 2.04  75 2.04   8 2.04  47 2.89   3 2.89   1 2.89  23 2.89
                            78 2.89   7 2.89  86 2.89  94 2.89  41 2.89  29 2.89
  93  0.400  0.800  0.600-  84 2.04  89 2.04  99 2.04  76 2.04  91 2.04  74 2.04  57 2.89  73 2.89
                             6 2.89  82 2.89  62 2.89  63 2.89  24 2.89  53 2.89   5 2.89  60 2.89
  94  0.800  0.400  0.000-  75 2.04  23 2.89  41 2.89  47 2.89   4 2.89  92 2.89  96 2.89   1 2.89
                            79 2.89  26 2.89  69 2.89
  95  0.000  0.800  0.400-  67 2.04  58 2.04  82 2.04  98 2.04  34 2.89  64 2.89  38 2.89  43 2.89
                            44 2.89  16 2.89  17 2.89  25 2.89  99 2.89
  96  0.000  0.200  0.000-  10 2.04  13 2.04  18 2.04  39 2.04  26 2.89  94 2.89  97 2.89  43 2.89
                            47 2.89  50 2.89  51 2.89  27 2.89   4 2.89 100 2.89
  97  0.200  0.400  0.000-  18 2.04  29 2.04  35 2.04  59 2.04  85 2.89  51 2.89  65 2.89  55 2.89
                            87 2.89  96 2.89 100 2.89  52 2.89  26 2.89  72 2.89  79 2.89
  98  0.000  0.800  0.600-  44 2.04  56 2.04  17 2.04  95 2.04  99 2.04  54 2.89  70 2.89  73 2.89
                            57 2.89  67 2.89  82 2.89  88 2.89  62 2.89  58 2.89
  99  0.200  0.800  0.600-  57 2.04  73 2.04  93 2.04  82 2.04  62 2.04  98 2.04  89 2.89  72 2.89
                            84 2.89  32 2.89  34 2.89  44 2.89  91 2.89  56 2.89  76 2.89  17 2.89
 100  0.200  0.200  0.200-  11 2.04  35 2.04  86 2.04  39 2.04  66 2.04  18 2.04  55 2.89  19 2.89
                            28 2.89   9 2.89  16 2.89  85 2.89  26 2.89  97 2.89  43 2.89  96 2.89
 

IMPORTANT INFORMATION: All symmetrisations will be switched off!
NOSYMM: (Re-)initialisation of all symmetry stuff for point group C_1.

 
 
 KPOINTS: simple                                  

Automatic generation of k-mesh.
Space group operators:
 irot       det(A)        alpha          n_x          n_y          n_z        tau_x        tau_y        tau_z
    1     1.000000     0.000000     1.000000     0.000000     0.000000     0.000000     0.000000     0.000000
 
 Subroutine IBZKPT returns following result:
 ===========================================
 
 Found      1 irreducible k-points:
 
 Following reciprocal coordinates:
            Coordinates               Weight
  0.000000  0.000000  0.000000      1.000000
 
 Following cartesian coordinates:
            Coordinates               Weight
  0.000000  0.000000  0.000000      1.000000
 


--------------------------------------------------------------------------------------------------------




 Dimension of arrays:
   k-points           NKPTS =      1   k-points in BZ     NKDIM =      1   number of bands    NBANDS=    304
   number of dos      NEDOS =    301   number of ions     NIONS =    100
   non local maximal  LDIM  =      4   non local SUM 2l+1 LMDIM =      8
   total plane-waves  NPLWV =  64000
   max r-space proj   IRMAX =   1017   max aug-charges    IRDMAX=   2209
   dimension x,y,z NGX =    40 NGY =   40 NGZ =   40
   dimension x,y,z NGXF=    80 NGYF=   80 NGZF=   80
   support grid    NGXF=    80 NGYF=   80 NGZF=   80
   ions per type =             100
   NGX,Y,Z   is equivalent  to a cutoff of   6.51,  6.51,  6.51 a.u.
   NGXF,Y,Z  is equivalent  to a cutoff of  13.02, 13.02, 13.02 a.u.

 SYSTEM =  unknown system                          
 POSCAR =  Si100                                   

 Startparameter for this run:
   NWRITE =      2    write-flag & timer
   PREC   = normal    normal or accurate (medium, high low for compatibility)
   ISTART =      0    job   : 0-new  1-cont  2-samecut
   ICHARG =      2    charge: 1-file 2-atom 10-const
   ISPIN  =      2    spin polarized calculation?
   LNONCOLLINEAR =      F non collinear calculations
   LSORBIT =      F    spin-orbit coupling
   INIWAV =      1    electr: 0-lowe 1-rand  2-diag
   LASPH  =      F    aspherical Exc in radial PAW
   METAGGA=      F    non-selfconsistent MetaGGA calc.

 Electronic Relaxation 1
   ENCUT  =  245.3 eV  18.03 Ry    4.25 a.u.  13.04 13.04 13.04*2*pi/ulx,y,z
   ENINI  =  245.3     initial cutoff
   ENAUG  =  322.1 eV  augmentation charge cutoff
   NELM   =     60;   NELMIN=  4; NELMDL=  0     # of ELM steps 
   EDIFF  = 0.1E-04   stopping-criterion for ELM
   LREAL  =      T    real-space projection
   NLSPLINE    = F    spline interpolate recip. space projectors
   LCOMPAT=      F    compatible to vasp.4.4
   GGA_COMPAT  = T    GGA compatible to vasp.4.4-vasp.4.6
   LMAXPAW     = -100 max onsite density
   LMAXMIX     =    2 max onsite mixed and CHGCAR
   VOSKOWN=      0    Vosko Wilk Nusair interpolation
   ROPT   =   -0.00050
 Ionic relaxation
   EDIFFG = 0.1E-03   stopping-criterion for IOM
   NSW    =      0    number of steps for IOM
   NBLOCK =      1;   KBLOCK =      1    inner block; outer block 
   IBRION =     -1    ionic relax: 0-MD 1-quasi-New 2-CG
   NFREE  =      0    steps in history (QN), initial steepest desc. (CG)
   ISIF   =      7    stress and relaxation
   IWAVPR =     10    prediction:  0-non 1-charg 2-wave 3-comb
   ISYM   =      0    0-nonsym 1-usesym 2-fastsym
   LCORR  =      T    Harris-Foulkes like correction to forces

   POTIM  = 0.3000    time-step for ionic-motion
   TEIN   =    0.0    initial temperature
   TEBEG  = 2000.0;   TEEND  =2000.0 temperature during run
   SMASS  =  -3.00    Nose mass-parameter (am)
   estimated Nose-frequenzy (Omega)   =  0.10E-29 period in steps =****** mass=  -0.238E-26a.u.
   SCALEE = 1.0000    scale energy and forces
   NPACO  =    256;   APACO  = 16.0  distance and # of slots for P.C.
   PSTRESS=    0.0 pullay stress

  Mass of Ions in am
   POMASS =  28.09
  Ionic Valenz
   ZVAL   =   4.00
  Atomic Wigner-Seitz radii
   RWIGS  =  -1.00
  virtual crystal weights 
   VCA    =   1.00
   NELECT =     400.0000    total number of electrons
   NUPDOWN=      -1.0000    fix difference up-down

 DOS related values:
   EMIN   =  10.00;   EMAX   =-10.00  energy-range for DOS
   EFERMI =   0.00
   ISMEAR =     0;   SIGMA  =   0.05  broadening in eV -4-tet -1-fermi 0-gaus

 Electronic relaxation 2 (details)
   IALGO  =     68    algorithm
   LDIAG  =      T    sub-space diagonalisation (order eigenvalues)
   LSUBROT=      F    optimize rotation matrix (better conditioning)
   TURBO    =      0    0=normal 1=particle mesh
   IRESTART =      0    0=no restart 2=restart with 2 vectors
   NREBOOT  =      0    no. of reboots
   NMIN     =      0    reboot dimension
   EREF     =   0.00    reference energy to select bands
   IMIX   =      4    mixing-type and parameters
     AMIX     =   0.40;   BMIX     =  1.00
     AMIX_MAG =   1.60;   BMIX_MAG =  1.00
     AMIN     =   0.10
     WC   =   100.;   INIMIX=   1;  MIXPRE=   1;  MAXMIX= -45

 Intra band minimization:
   WEIMIN = 0.0000     energy-eigenvalue tresh-hold
   EBREAK =  0.82E-08  absolut break condition
   DEPER  =   0.30     relativ break condition  

   TIME   =   0.40     timestep for ELM

  volume/ion in A,a.u.               =      10.65        71.86
  Fermi-wavevector in a.u.,A,eV,Ry     =   1.181242  2.232223 18.984649  1.395332
  Thomas-Fermi vector in A             =   2.317519
 
 Write flags
   LWAVE        =      F    write WAVECAR
   LDOWNSAMPLE  =      F    k-point downsampling of WAVECAR
   LCHARG       =      F    write CHGCAR
   LVTOT        =      F    write LOCPOT, total local potential
   LVHAR        =      F    write LOCPOT, Hartree potential only
   LELF         =      F    write electronic localiz. function (ELF)
   LORBIT       =      0    0 simple, 1 ext, 2 COOP (PROOUT), +10 PAW based schemes


 Dipole corrections
   LMONO  =      F    monopole corrections only (constant potential shift)
   LDIPOL =      F    correct potential (dipole corrections)
   IDIPOL =      0    1-x, 2-y, 3-z, 4-all directions 
   EPSILON=  1.0000000 bulk dielectric constant

 Exchange correlation treatment:
   GGA     =    --    GGA type
   LEXCH   =     8    internal setting for exchange type
   VOSKOWN=      0    Vosko Wilk Nusair interpolation
   LHFCALC =     F    Hartree Fock is set to
   LHFONE  =     F    Hartree Fock one center treatment
   AEXX    =    0.0000 exact exchange contribution

 Linear response parameters
   LEPSILON=     F    determine dielectric tensor
   LRPA    =     F    only Hartree local field effects (RPA)
   LNABLA  =     F    use nabla operator in PAW spheres
   LVEL    =     F    velocity operator in full k-point grid
   LINTERFAST=   F  fast interpolation
   KINTER  =     0    interpolate to denser k-point grid
   CSHIFT  =0.1000    complex shift for real part using Kramers Kronig
   OMEGAMAX=  -1.0    maximum frequency
   DEG_THRESHOLD= 0.2000000E-02 threshold for treating states as degnerate
   RTIME   =   -0.100 relaxation time in fs
  (WPLASMAI=    0.000 imaginary part of plasma frequency in eV, 0.658/RTIME)
   DFIELD  = 0.0000000 0.0000000 0.0000000 field for delta impulse in time
 
 Orbital magnetization related:
   ORBITALMAG=     F  switch on orbital magnetization
   LCHIMAG   =     F  perturbation theory with respect to B field
   DQ        =  0.001000  dq finite difference perturbation B field
   LLRAUG    =     F  two centre corrections for induced B field



--------------------------------------------------------------------------------------------------------


 Static calculation
 charge density and potential will be updated during run
 spin polarized calculation
 RMM-DIIS sequential band-by-band and
  variant of blocked Davidson during initial phase
 perform sub-space diagonalisation
    before iterative eigenvector-optimisation
 modified Broyden-mixing scheme, WC =      100.0
 initial mixing is a Kerker type mixing with AMIX =  0.4000 and BMIX =      1.0000
 Hartree-type preconditioning will be used
 using additional bands          104
 real space projection scheme for non local part
 use partial core corrections
 calculate Harris-corrections to forces 
   (improved forces if not selfconsistent)
 use gradient corrections 
 use of overlap-Matrix (Vanderbilt PP)
 Gauss-broadening in eV      SIGMA  =   0.05


--------------------------------------------------------------------------------------------------------


  energy-cutoff  :      245.34
  volume of cell :     1064.80
      direct lattice vectors                 reciprocal lattice vectors
    10.211495000  0.000000000  0.000000000     0.097928854  0.000000000  0.000000000
     0.000000000 10.211495000  0.000000000     0.000000000  0.097928854  0.000000000
     0.000000000  0.000000000 10.211495000     0.000000000  0.000000000  0.097928854

  length of vectors
    10.211495000 10.211495000 10.211495000     0.097928854  0.097928854  0.097928854


 
 k-points in units of 2pi/SCALE and weight: simple                                  
   0.00000000  0.00000000  0.00000000       1.000
 
 k-points in reciprocal lattice and weights: simple                                  
   0.00000000  0.00000000  0.00000000       1.000
 
 position of ions in fractional coordinates (direct lattice) 
   0.80000000  0.60000000  0.20000000
   0.80000000  0.80000000  0.00000000
   0.60000000  0.20000000  0.40000000
   0.80000000  0.20000000  0.80000000
   0.40000000  0.00000000  0.40000000
   0.60000000  0.80000000  0.80000000
   0.60000000  0.60000000  0.40000000
   0.60000000  0.60000000  0.20000000
   0.40000000  0.00000000  0.20000000
   0.00000000  0.00000000  0.00000000
   0.20000000  0.20000000  0.40000000
   0.80000000  0.20000000  0.40000000
   0.00000000  0.20000000  0.80000000
   0.80000000  0.20000000  0.60000000
   0.00000000  0.20000000  0.60000000
   0.20000000  0.00000000  0.40000000
   0.00000000  0.00000000  0.60000000
   0.20000000  0.20000000  0.00000000
   0.40000000  0.20000000  0.40000000
   0.60000000  0.80000000  0.40000000
   0.60000000  0.80000000  0.00000000
   0.00000000  0.40000000  0.60000000
   0.60000000  0.20000000  0.00000000
   0.40000000  0.60000000  0.40000000
   0.80000000  0.00000000  0.40000000
   0.00000000  0.40000000  0.20000000
   0.20000000  0.00000000  0.00000000
   0.20000000  0.40000000  0.40000000
   0.40000000  0.40000000  0.00000000
   0.60000000  0.00000000  0.80000000
   0.60000000  0.00000000  0.40000000
   0.20000000  0.00000000  0.80000000
   0.20000000  0.80000000  0.00000000
   0.20000000  0.60000000  0.40000000
   0.20000000  0.40000000  0.20000000
   0.00000000  0.80000000  0.00000000
   0.40000000  0.80000000  0.20000000
   0.80000000  0.60000000  0.40000000
   0.00000000  0.20000000  0.20000000
   0.40000000  0.00000000  0.00000000
   0.60000000  0.60000000  0.00000000
   0.60000000  0.40000000  0.60000000
   0.00000000  0.00000000  0.20000000
   0.00000000  0.60000000  0.60000000
   0.40000000  0.20000000  0.60000000
   0.20000000  0.40000000  0.60000000
   0.80000000  0.20000000  0.20000000
   0.60000000  0.20000000  0.60000000
   0.40000000  0.20000000  0.80000000
   0.80000000  0.00000000  0.00000000
   0.20000000  0.20000000  0.80000000
   0.20000000  0.60000000  0.20000000
   0.40000000  0.00000000  0.80000000
   0.00000000  0.60000000  0.80000000
   0.40000000  0.40000000  0.20000000
   0.00000000  0.80000000  0.80000000
   0.20000000  0.60000000  0.60000000
   0.80000000  0.80000000  0.40000000
   0.20000000  0.60000000  0.00000000
   0.60000000  0.00000000  0.60000000
   0.60000000  0.00000000  0.00000000
   0.20000000  0.00000000  0.60000000
   0.60000000  0.60000000  0.60000000
   0.20000000  0.80000000  0.20000000
   0.40000000  0.40000000  0.80000000
   0.20000000  0.00000000  0.20000000
   0.00000000  0.60000000  0.40000000
   0.20000000  0.20000000  0.60000000
   0.80000000  0.60000000  0.80000000
   0.80000000  0.80000000  0.80000000
   0.60000000  0.20000000  0.80000000
   0.20000000  0.60000000  0.80000000
   0.20000000  0.80000000  0.80000000
   0.60000000  0.80000000  0.60000000
   0.60000000  0.40000000  0.00000000
   0.40000000  0.80000000  0.40000000
   0.40000000  0.80000000  0.00000000
   0.40000000  0.40000000  0.40000000
   0.00000000  0.60000000  0.00000000
   0.60000000  0.60000000  0.80000000
   0.60000000  0.40000000  0.40000000
   0.20000000  0.80000000  0.40000000
   0.80000000  0.00000000  0.80000000
   0.40000000  0.60000000  0.60000000
   0.40000000  0.20000000  0.00000000
   0.40000000  0.20000000  0.20000000
   0.40000000  0.60000000  0.00000000
   0.80000000  0.00000000  0.60000000
   0.40000000  0.80000000  0.80000000
   0.60000000  0.00000000  0.20000000
   0.40000000  0.00000000  0.60000000
   0.60000000  0.40000000  0.20000000
   0.40000000  0.80000000  0.60000000
   0.80000000  0.40000000  0.00000000
   0.00000000  0.80000000  0.40000000
   0.00000000  0.20000000  0.00000000
   0.20000000  0.40000000  0.00000000
   0.00000000  0.80000000  0.60000000
   0.20000000  0.80000000  0.60000000
   0.20000000  0.20000000  0.20000000
 
 position of ions in cartesian coordinates  (Angst):
   8.16919600  6.12689700  2.04229900
   8.16919600  8.16919600  0.00000000
   6.12689700  2.04229900  4.08459800
   8.16919600  2.04229900  8.16919600
   4.08459800  0.00000000  4.08459800
   6.12689700  8.16919600  8.16919600
   6.12689700  6.12689700  4.08459800
   6.12689700  6.12689700  2.04229900
   4.08459800  0.00000000  2.04229900
   0.00000000  0.00000000  0.00000000
   2.04229900  2.04229900  4.08459800
   8.16919600  2.04229900  4.08459800
   0.00000000  2.04229900  8.16919600
   8.16919600  2.04229900  6.12689700
   0.00000000  2.04229900  6.12689700
   2.04229900  0.00000000  4.08459800
   0.00000000  0.00000000  6.12689700
   2.04229900  2.04229900  0.00000000
   4.08459800  2.04229900  4.08459800
   6.12689700  8.16919600  4.08459800
   6.12689700  8.16919600  0.00000000
   0.00000000  4.08459800  6.12689700
   6.12689700  2.04229900  0.00000000
   4.08459800  6.12689700  4.08459800
   8.16919600  0.00000000  4.08459800
   0.00000000  4.08459800  2.04229900
   2.04229900  0.00000000  0.00000000
   2.04229900  4.08459800  4.08459800
   4.08459800  4.08459800  0.00000000
   6.12689700  0.00000000  8.16919600
   6.12689700  0.00000000  4.08459800
   2.04229900  0.00000000  8.16919600
   2.04229900  8.16919600  0.00000000
   2.04229900  6.12689700  4.08459800
   2.04229900  4.08459800  2.04229900
   0.00000000  8.16919600  0.00000000
   4.08459800  8.16919600  2.04229900
   8.16919600  6.12689700  4.08459800
   0.00000000  2.04229900  2.04229900
   4.08459800  0.00000000  0.00000000
   6.12689700  6.12689700  0.00000000
   6.12689700  4.08459800  6.12689700
   0.00000000  0.00000000  2.04229900
   0.00000000  6.12689700  6.12689700
   4.08459800  2.04229900  6.12689700
   2.04229900  4.08459800  6.12689700
   8.16919600  2.04229900  2.04229900
   6.12689700  2.04229900  6.12689700
   4.08459800  2.04229900  8.16919600
   8.16919600  0.00000000  0.00000000
   2.04229900  2.04229900  8.16919600
   2.04229900  6.12689700  2.04229900
   4.08459800  0.00000000  8.16919600
   0.00000000  6.12689700  8.16919600
   4.08459800  4.08459800  2.04229900
   0.00000000  8.16919600  8.16919600
   2.04229900  6.12689700  6.12689700
   8.16919600  8.16919600  4.08459800
   2.04229900  6.12689700  0.00000000
   6.12689700  0.00000000  6.12689700
   6.12689700  0.00000000  0.00000000
   2.04229900  0.00000000  6.12689700
   6.12689700  6.12689700  6.12689700
   2.04229900  8.16919600  2.04229900
   4.08459800  4.08459800  8.16919600
   2.04229900  0.00000000  2.04229900
   0.00000000  6.12689700  4.08459800
   2.04229900  2.04229900  6.12689700
   8.16919600  6.12689700  8.16919600
   8.16919600  8.16919600  8.16919600
   6.12689700  2.04229900  8.16919600
   2.04229900  6.12689700  8.16919600
   2.04229900  8.16919600  8.16919600
   6.12689700  8.16919600  6.12689700
   6.12689700  4.08459800  0.00000000
   4.08459800  8.16919600  4.08459800
   4.08459800  8.16919600  0.00000000
   4.08459800  4.08459800  4.08459800
   0.00000000  6.12689700  0.00000000
   6.12689700  6.12689700  8.16919600
   6.12689700  4.08459800  4.08459800
   2.04229900  8.16919600  4.08459800
   8.16919600  0.00000000  8.16919600
   4.08459800  6.12689700  6.12689700
   4.08459800  2.04229900  0.00000000
   4.08459800  2.04229900  2.04229900
   4.08459800  6.12689700  0.00000000
   8.16919600  0.00000000  6.12689700
   4.08459800  8.16919600  8.16919600
   6.12689700  0.00000000  2.04229900
   4.08459800  0.00000000  6.12689700
   6.12689700  4.08459800  2.04229900
   4.08459800  8.16919600  6.12689700
   8.16919600  4.08459800  0.00000000
   0.00000000  8.16919600  4.08459800
   0.00000000  2.04229900  0.00000000
   2.04229900  4.08459800  0.00000000
   0.00000000  8.16919600  6.12689700
   2.04229900  8.16919600  6.12689700
   2.04229900  2.04229900  2.04229900
 


--------------------------------------------------------------------------------------------------------


 k-point  1 :   0.0000 0.0000 0.0000  plane waves:    9315

 maximum and minimum number of plane-waves per node :      9315     9315

 maximum number of plane-waves:      9315
 maximum index in each direction: 
   IXMAX=   13   IYMAX=   13   IZMAX=   13
   IXMIN=  -13   IYMIN=  -13   IZMIN=  -13


 serial   3D FFT for wavefunctions
 parallel 3D FFT for charge:
    minimum data exchange during FFTs selected (reduces bandwidth)


 total amount of memory used by VASP MPI-rank0    53807. kBytes
=======================================================================

   base      :      30000. kBytes
   nonlr-proj:       8139. kBytes
   fftplans  :       1377. kBytes
   grid      :       7520. kBytes
   one-center:        614. kBytes
   wavefun   :       6157. kBytes
 
     INWAV:  cpu time    0.0000: real time    0.0000
 Broyden mixing: mesh for mixing (old mesh)
   NGX = 27   NGY = 27   NGZ = 27
  (NGX  = 80   NGY  = 80   NGZ  = 80)
  gives a total of  19683 points

 initial charge density was supplied:
 charge density of overlapping atoms calculated
 number of electron     400.0000000 magnetization     100.0000000
 keeping initial charge density in first step


--------------------------------------------------------------------------------------------------------


 Maximum index for non-local projection operator          925
 Maximum index for augmentation-charges          185 (set IRDMAX)


--------------------------------------------------------------------------------------------------------


 First call to EWALD:  gamma=   0.174
 Maximum number of real-space cells 3x 3x 3
 Maximum number of reciprocal cells 3x 3x 3

    FEWALD:  cpu time    0.0065: real time    0.0065


--------------------------------------- Iteration      1(   1)  ---------------------------------------


    POTLOK:  cpu time    0.0464: real time    0.1862
    SETDIJ:  cpu time    0.0285: real time    0.0286
     EDDAV:  cpu time    1.6923: real time    1.7031
       DOS:  cpu time    0.0010: real time    0.0010
    --------------------------------------------
      LOOP:  cpu time    1.7682: real time    1.9189

 eigenvalue-minimisations  :  1216
 total energy-change (2. order) : 0.9273361E+03  (-0.1047852E+05)
 number of electron     400.0000000 magnetization     100.0000000
 augmentation part      400.0000000 magnetization     100.0000000

 Free energy of the ion-electron system (eV)
  ---------------------------------------------------
  alpha Z        PSCENC =       316.14514549
  Ewald energy   TEWEN  =    -12947.38204056
  -Hartree energ DENC   =     -1458.60698500
  -exchange      EXHF   =         0.00000000
  -V(xc)+E(xc)   XCENC  =      -762.14367111
  PAW double counting   =      8803.41707833    -7043.47671478
  entropy T*S    EENTRO =        -0.03947474
  eigenvalues    EBANDS =      3713.29415948
  atomic energy  EATOM  =     10306.12861560
  Solvation  Ediel_sol  =         0.00000000
  ---------------------------------------------------
  free energy    TOTEN  =       927.33611272 eV

  energy without entropy =      927.37558746  energy(sigma->0) =      927.35585009


--------------------------------------------------------------------------------------------------------




--------------------------------------- Iteration      1(   2)  ---------------------------------------


     EDDAV:  cpu time    1.9476: real time    1.9605
       DOS:  cpu time    0.0010: real time    0.0010
    --------------------------------------------
      LOOP:  cpu time    1.9486: real time    1.9615

 eigenvalue-minimisations  :  1472
 total energy-change (2. order) :-0.1131612E+04  (-0.1051186E+04)
 number of electron     400.0000000 magnetization     100.0000000
 augmentation part      400.0000000 magnetization     100.0000000

 Free energy of the ion-electron system (eV)
  ---------------------------------------------------
  alpha Z        PSCENC =       316.14514549
  Ewald energy   TEWEN  =    -12947.38204056
  -Hartree energ DENC   =     -1458.60698500
  -exchange      EXHF   =         0.00000000
  -V(xc)+E(xc)   XCENC  =      -762.14367111
  PAW double counting   =      8803.41707833    -7043.47671478
  entropy T*S    EENTRO =        -0.04910859
  eigenvalues    EBANDS =      2581.69205565
  atomic energy  EATOM  =     10306.12861560
  Solvation  Ediel_sol  =         0.00000000
  ---------------------------------------------------
  free energy    TOTEN  =      -204.27562497 eV

  energy without entropy =     -204.22651638  energy(sigma->0) =     -204.25107068


--------------------------------------------------------------------------------------------------------




--------------------------------------- Iteration      1(   3)  ---------------------------------------


     EDDAV:  cpu time    2.0034: real time    2.0163
       DOS:  cpu time    0.0010: real time    0.0010
    --------------------------------------------
      LOOP:  cpu time    2.0044: real time    2.0173

 eigenvalue-minimisations  :  1520
 total energy-change (2. order) :-0.6183149E+02  (-0.5917827E+02)
 number of electron     400.0000000 magnetization     100.0000000
 augmentation part      400.0000000 magnetization     100.0000000

 Free energy of the ion-electron system (eV)
  ---------------------------------------------------
  alpha Z        PSCENC =       316.14514549
  Ewald energy   TEWEN  =    -12947.38204056
  -Hartree energ DENC   =     -1458.60698500
  -exchange      EXHF   =         0.00000000
  -V(xc)+E(xc)   XCENC  =      -762.14367111
  PAW double counting   =      8803.41707833    -7043.47671478
  entropy T*S    EENTRO =        -0.06128248
  eigenvalues    EBANDS =      2519.87274449
  atomic energy  EATOM  =     10306.12861560
  Solvation  Ediel_sol  =         0.00000000
  ---------------------------------------------------
  free energy    TOTEN  =      -266.10711002 eV

  energy without entropy =     -266.04582754  energy(sigma->0) =     -266.07646878


--------------------------------------------------------------------------------------------------------




--------------------------------------- Iteration      1(   4)  ---------------------------------------


     EDDAV:  cpu time    2.0159: real time    2.0290
       DOS:  cpu time    0.0010: real time    0.0010
    --------------------------------------------
      LOOP:  cpu time    2.0169: real time    2.0300

 eigenvalue-minimisations  :  1536
 total energy-change (2. order) :-0.1452491E+01  (-0.1435765E+01)
 number of electron     400.0000000 magnetization     100.0000000
 augmentation part      400.0000000 magnetization     100.0000000

 Free energy of the ion-electron system (eV)
  ---------------------------------------------------
  alpha Z        PSCENC =       316.14514549
  Ewald energy   TEWEN  =    -12947.38204056
  -Hartree energ DENC   =     -1458.60698500
  -exchange      EXHF   =         0.00000000
  -V(xc)+E(xc)   XCENC  =      -762.14367111
  PAW double counting   =      8803.41707833    -7043.47671478
  entropy T*S    EENTRO =        -0.06087696
  eigenvalues    EBANDS =      2518.41984812
  atomic energy  EATOM  =     10306.12861560
  Solvation  Ediel_sol  =         0.00000000
  ---------------------------------------------------
  free energy    TOTEN  =      -267.55960086 eV

  energy without entropy =     -267.49872391  energy(sigma->0) =     -267.52916238


--------------------------------------------------------------------------------------------------------




--------------------------------------- Iteration      1(   5)  ---------------------------------------


     EDDAV:  cpu time    2.0186: real time    2.0317
       DOS:  cpu time    0.0010: real time    0.0010
    CHARGE:  cpu time    0.0387: real time    0.0388
    MIXING:  cpu time    0.0008: real time    0.0008
    --------------------------------------------
      LOOP:  cpu time    2.0591: real time    2.0723

 eigenvalue-minimisations  :  1536
 total energy-change (2. order) :-0.4168224E-01  (-0.4156917E-01)
 number of electron     400.0002298 magnetization      65.8095192
 augmentation part      -26.2729849 magnetization      42.8960260

 Broyden mixing:
  rms(total) = 0.81305E+01    rms(broyden)= 0.81301E+01
  rms(prec ) = 0.93248E+01
  weight for this iteration     100.00

 Free energy of the ion-electron system (eV)
  ---------------------------------------------------
  alpha Z        PSCENC =       316.14514549
  Ewald energy   TEWEN  =    -12947.38204056
  -Hartree energ DENC   =     -1458.60698500
  -exchange      EXHF   =         0.00000000
  -V(xc)+E(xc)   XCENC  =      -762.14367111
  PAW double counting   =      8803.41707833    -7043.47671478
  entropy T*S    EENTRO =        -0.06089558
  eigenvalues    EBANDS =      2518.37818450
  atomic energy  EATOM  =     10306.12861560
  Solvation  Ediel_sol  =         0.00000000
  ---------------------------------------------------
  free energy    TOTEN  =      -267.60128310 eV

  energy without entropy =     -267.54038752  energy(sigma->0) =     -267.57083531


--------------------------------------------------------------------------------------------------------




--------------------------------------- Iteration      1(   6)  ---------------------------------------


    POTLOK:  cpu time    0.0435: real time    0.0437
    SETDIJ:  cpu time    0.0286: real time    0.0287
    EDDIAG:  cpu time    0.2857: real time    0.2868
  RMM-DIIS:  cpu time    0.7190: real time    0.7240
    ORTHCH:  cpu time    0.0863: real time    0.0867
       DOS:  cpu time    0.0003: real time    0.0003
    CHARGE:  cpu time    0.0390: real time    0.0391
    MIXING:  cpu time    0.0010: real time    0.0010
    --------------------------------------------
      LOOP:  cpu time    1.2034: real time    1.2103

 eigenvalue-minimisations  :  1377
 total energy-change (2. order) : 0.1700589E+02  (-0.9477623E+01)
 number of electron     400.0002253 magnetization      42.5433487
 augmentation part      -25.7485194 magnetization      30.5568996

 Broyden mixing:
  rms(total) = 0.50982E+01    rms(broyden)= 0.50982E+01
  rms(prec ) = 0.56804E+01
  weight for this iteration     100.00

 eigenvalues of (default mixing * dielectric matrix)
  average eigenvalue GAMMA=   1.2540
  1.2540

 Free energy of the ion-electron system (eV)
  ---------------------------------------------------
  alpha Z        PSCENC =       316.14514549
  Ewald energy   TEWEN  =    -12947.38204056
  -Hartree energ DENC   =     -1648.81464896
  -exchange      EXHF   =         0.00000000
  -V(xc)+E(xc)   XCENC  =      -755.55812828
  PAW double counting   =     43352.96227656   -41608.84605693
  entropy T*S    EENTRO =        -0.03262389
  eigenvalues    EBANDS =      2734.80207024
  atomic energy  EATOM  =     10306.12861560
  Solvation  Ediel_sol  =         0.00000000
  ---------------------------------------------------
  free energy    TOTEN  =      -250.59539074 eV

  energy without entropy =     -250.56276685  energy(sigma->0) =     -250.57907879


--------------------------------------------------------------------------------------------------------




--------------------------------------- Iteration      1(   7)  ---------------------------------------


    POTLOK:  cpu time    0.0434: real time    0.0436
    SETDIJ:  cpu time    0.0286: real time    0.0287
    EDDIAG:  cpu time    0.2856: real time    0.2868
  RMM-DIIS:  cpu time    0.6717: real time    0.6763
    ORTHCH:  cpu time    0.0866: real time    0.0869
       DOS:  cpu time    0.0003: real time    0.0003
    CHARGE:  cpu time    0.0389: real time    0.0390
    MIXING:  cpu time    0.0011: real time    0.0011
    --------------------------------------------
      LOOP:  cpu time    1.1562: real time    1.1627

 eigenvalue-minimisations  :  1285
 total energy-change (2. order) : 0.7967815E+00  (-0.1545213E+01)
 number of electron     400.0002260 magnetization      11.3349147
 augmentation part      -25.8299966 magnetization       1.5019253

 Broyden mixing:
  rms(total) = 0.30381E+01    rms(broyden)= 0.30381E+01
  rms(prec ) = 0.33440E+01
  weight for this iteration     100.00

 eigenvalues of (default mixing * dielectric matrix)
  average eigenvalue GAMMA=   1.5147
  2.4263  0.6031

 Free energy of the ion-electron system (eV)
  ---------------------------------------------------
  alpha Z        PSCENC =       316.14514549
  Ewald energy   TEWEN  =    -12947.38204056
  -Hartree energ DENC   =     -1627.92072901
  -exchange      EXHF   =         0.00000000
  -V(xc)+E(xc)   XCENC  =      -751.20921848
  PAW double counting   =     79105.89145398   -77370.51667946
  entropy T*S    EENTRO =        -0.05525693
  eigenvalues    EBANDS =      2719.12010013
  atomic energy  EATOM  =     10306.12861560
  Solvation  Ediel_sol  =         0.00000000
  ---------------------------------------------------
  free energy    TOTEN  =      -249.79860923 eV

  energy without entropy =     -249.74335230  energy(sigma->0) =     -249.77098076


--------------------------------------------------------------------------------------------------------




--------------------------------------- Iteration      1(   8)  ---------------------------------------


    POTLOK:  cpu time    0.0434: real time    0.0435
    SETDIJ:  cpu time    0.0287: real time    0.0288
    EDDIAG:  cpu time    0.2855: real time    0.2866
  RMM-DIIS:  cpu time    0.7146: real time    0.7196
    ORTHCH:  cpu time    0.0869: real time    0.0872
       DOS:  cpu time    0.0003: real time    0.0003
    CHARGE:  cpu time    0.0384: real time    0.0385
    MIXING:  cpu time    0.0011: real time    0.0011
    --------------------------------------------
      LOOP:  cpu time    1.1988: real time    1.2058

 eigenvalue-minimisations  :  1357
 total energy-change (2. order) :-0.2193692E+01  (-0.5459299E+00)
 number of electron     400.0002244 magnetization       5.8161157
 augmentation part      -25.6506122 magnetization       2.5393156

 Broyden mixing:
  rms(total) = 0.52077E+00    rms(broyden)= 0.52073E+00
  rms(prec ) = 0.64667E+00
  weight for this iteration     100.00

 eigenvalues of (default mixing * dielectric matrix)
  average eigenvalue GAMMA=   1.3160
  2.4559  0.8462  0.6458

 Free energy of the ion-electron system (eV)
  ---------------------------------------------------
  alpha Z        PSCENC =       316.14514549
  Ewald energy   TEWEN  =    -12947.38204056
  -Hartree energ DENC   =     -1676.56644214
  -exchange      EXHF   =         0.00000000
  -V(xc)+E(xc)   XCENC  =      -743.24214740
  PAW double counting   =    144238.28431916  -142514.94086863
  entropy T*S    EENTRO =        -0.04940935
  eigenvalues    EBANDS =      2769.63052668
  atomic energy  EATOM  =     10306.12861560
  Solvation  Ediel_sol  =         0.00000000
  ---------------------------------------------------
  free energy    TOTEN  =      -251.99230115 eV

  energy without entropy =     -251.94289180  energy(sigma->0) =     -251.96759647


--------------------------------------------------------------------------------------------------------




--------------------------------------- Iteration      1(   9)  ---------------------------------------


    POTLOK:  cpu time    0.0435: real time    0.0440
    SETDIJ:  cpu time    0.0287: real time    0.0287
    EDDIAG:  cpu time    0.2851: real time    0.2863
  RMM-DIIS:  cpu time    0.7466: real time    0.7517
    ORTHCH:  cpu time    0.0865: real time    0.0868
       DOS:  cpu time    0.0003: real time    0.0003
    CHARGE:  cpu time    0.0384: real time    0.0385
    MIXING:  cpu time    0.0013: real time    0.0013
    --------------------------------------------
      LOOP:  cpu time    1.2302: real time    1.2376

 eigenvalue-minimisations  :  1419
 total energy-change (2. order) :-0.1890835E+00  (-0.9185370E-01)
 number of electron     400.0002246 magnetization       3.7417943
 augmentation part      -25.6686835 magnetization       2.0691986

 Broyden mixing:
  rms(total) = 0.22921E+00    rms(broyden)= 0.22920E+00
  rms(prec ) = 0.28257E+00
  weight for this iteration     100.00

 eigenvalues of (default mixing * dielectric matrix)
  average eigenvalue GAMMA=   1.2523
  2.4383  1.2184  0.6763  0.6763

 Free energy of the ion-electron system (eV)
  ---------------------------------------------------
  alpha Z        PSCENC =       316.14514549
  Ewald energy   TEWEN  =    -12947.38204056
  -Hartree energ DENC   =     -1672.40274479
  -exchange      EXHF   =         0.00000000
  -V(xc)+E(xc)   XCENC  =      -742.42649182
  PAW double counting   =    153311.63954418  -151589.51319095
  entropy T*S    EENTRO =        -0.03937518
  eigenvalues    EBANDS =      2765.66915338
  atomic energy  EATOM  =     10306.12861560
  Solvation  Ediel_sol  =         0.00000000
  ---------------------------------------------------
  free energy    TOTEN  =      -252.18138465 eV

  energy without entropy =     -252.14200946  energy(sigma->0) =     -252.16169706


--------------------------------------------------------------------------------------------------------




--------------------------------------- Iteration      1(  10)  ---------------------------------------


    POTLOK:  cpu time    0.0434: real time    0.0436
    SETDIJ:  cpu time    0.0287: real time    0.0287
    EDDIAG:  cpu time    0.2853: real time    0.2865
  RMM-DIIS:  cpu time    0.7440: real time    0.7493
    ORTHCH:  cpu time    0.0866: real time    0.0869
       DOS:  cpu time    0.0003: real time    0.0003
    CHARGE:  cpu time    0.0384: real time    0.0385
    MIXING:  cpu time    0.0013: real time    0.0014
    --------------------------------------------
      LOOP:  cpu time    1.2279: real time    1.2352

 eigenvalue-minimisations  :  1424
 total energy-change (2. order) :-0.1520449E-01  (-0.1896319E-01)
 number of electron     400.0002247 magnetization       2.2645019
 augmentation part      -25.6873065 magnetization       1.0174480

 Broyden mixing:
  rms(total) = 0.12840E+00    rms(broyden)= 0.12840E+00
  rms(prec ) = 0.14191E+00
  weight for this iteration     100.00

 eigenvalues of (default mixing * dielectric matrix)
  average eigenvalue GAMMA=   1.2450
  2.4239  1.5528  0.9484  0.6500  0.6500

 Free energy of the ion-electron system (eV)
  ---------------------------------------------------
  alpha Z        PSCENC =       316.14514549
  Ewald energy   TEWEN  =    -12947.38204056
  -Hartree energ DENC   =     -1667.58665064
  -exchange      EXHF   =         0.00000000
  -V(xc)+E(xc)   XCENC  =      -742.40858380
  PAW double counting   =    154034.58417772  -152312.47741360
  entropy T*S    EENTRO =        -0.03935766
  eigenvalues    EBANDS =      2760.83951832
  atomic energy  EATOM  =     10306.12861560
  Solvation  Ediel_sol  =         0.00000000
  ---------------------------------------------------
  free energy    TOTEN  =      -252.19658913 eV

  energy without entropy =     -252.15723148  energy(sigma->0) =     -252.17691030


--------------------------------------------------------------------------------------------------------




--------------------------------------- Iteration      1(  11)  ---------------------------------------


    POTLOK:  cpu time    0.0434: real time    0.0436
    SETDIJ:  cpu time    0.0286: real time    0.0287
    EDDIAG:  cpu time    0.2859: real time    0.2871
  RMM-DIIS:  cpu time    0.7578: real time    0.7630
    ORTHCH:  cpu time    0.0870: real time    0.0874
       DOS:  cpu time    0.0003: real time    0.0003
    CHARGE:  cpu time    0.0383: real time    0.0385
    MIXING:  cpu time    0.0014: real time    0.0014
    --------------------------------------------
      LOOP:  cpu time    1.2428: real time    1.2500

 eigenvalue-minimisations  :  1451
 total energy-change (2. order) :-0.2077792E-01  (-0.4803979E-02)
 number of electron     400.0002248 magnetization       1.1504217
 augmentation part      -25.6979396 magnetization       0.2971737

 Broyden mixing:
  rms(total) = 0.72388E-01    rms(broyden)= 0.72385E-01
  rms(prec ) = 0.76856E-01
  weight for this iteration     100.00

 eigenvalues of (default mixing * dielectric matrix)
  average eigenvalue GAMMA=   1.3399
  2.3712  2.3712  1.2086  0.8348  0.6343  0.6194

 Free energy of the ion-electron system (eV)
  ---------------------------------------------------
  alpha Z        PSCENC =       316.14514549
  Ewald energy   TEWEN  =    -12947.38204056
  -Hartree energ DENC   =     -1665.47069132
  -exchange      EXHF   =         0.00000000
  -V(xc)+E(xc)   XCENC  =      -742.35545554
  PAW double counting   =    153986.60240847  -152264.49690022
  entropy T*S    EENTRO =        -0.04038391
  eigenvalues    EBANDS =      2758.65193495
  atomic energy  EATOM  =     10306.12861560
  Solvation  Ediel_sol  =         0.00000000
  ---------------------------------------------------
  free energy    TOTEN  =      -252.21736706 eV

  energy without entropy =     -252.17698314  energy(sigma->0) =     -252.19717510


--------------------------------------------------------------------------------------------------------




--------------------------------------- Iteration      1(  12)  ---------------------------------------


    POTLOK:  cpu time    0.0434: real time    0.0436
    SETDIJ:  cpu time    0.0286: real time    0.0287
    EDDIAG:  cpu time    0.2858: real time    0.2870
  RMM-DIIS:  cpu time    0.7808: real time    0.7862
    ORTHCH:  cpu time    0.0870: real time    0.0874
       DOS:  cpu time    0.0003: real time    0.0003
    CHARGE:  cpu time    0.0383: real time    0.0385
    MIXING:  cpu time    0.0016: real time    0.0016
    --------------------------------------------
      LOOP:  cpu time    1.2659: real time    1.2733

 eigenvalue-minimisations  :  1470
 total energy-change (2. order) :-0.9315254E-02  (-0.1300093E-02)
 number of electron     400.0002248 magnetization       0.5837985
 augmentation part      -25.7009339 magnetization       0.0602807

 Broyden mixing:
  rms(total) = 0.30646E-01    rms(broyden)= 0.30643E-01
  rms(prec ) = 0.32389E-01
  weight for this iteration     100.00

 eigenvalues of (default mixing * dielectric matrix)
  average eigenvalue GAMMA=   1.3604
  2.6001  2.6001  1.3204  0.9316  0.8249  0.6395  0.6060

 Free energy of the ion-electron system (eV)
  ---------------------------------------------------
  alpha Z        PSCENC =       316.14514549
  Ewald energy   TEWEN  =    -12947.38204056
  -Hartree energ DENC   =     -1665.48612531
  -exchange      EXHF   =         0.00000000
  -V(xc)+E(xc)   XCENC  =      -742.25873686
  PAW double counting   =    153835.03651864  -152112.97287230
  entropy T*S    EENTRO =        -0.04299967
  eigenvalues    EBANDS =      2758.60581267
  atomic energy  EATOM  =     10306.12861560
  Solvation  Ediel_sol  =         0.00000000
  ---------------------------------------------------
  free energy    TOTEN  =      -252.22668231 eV

  energy without entropy =     -252.18368264  energy(sigma->0) =     -252.20518247


--------------------------------------------------------------------------------------------------------




--------------------------------------- Iteration      1(  13)  ---------------------------------------


    POTLOK:  cpu time    0.0434: real time    0.0435
    SETDIJ:  cpu time    0.0286: real time    0.0287
    EDDIAG:  cpu time    0.2878: real time    0.2890
  RMM-DIIS:  cpu time    0.7593: real time    0.7647
    ORTHCH:  cpu time    0.0872: real time    0.0875
       DOS:  cpu time    0.0003: real time    0.0003
    CHARGE:  cpu time    0.0383: real time    0.0385
    MIXING:  cpu time    0.0017: real time    0.0017
    --------------------------------------------
      LOOP:  cpu time    1.2466: real time    1.2540

 eigenvalue-minimisations  :  1462
 total energy-change (2. order) :-0.2494582E-02  (-0.3506437E-03)
 number of electron     400.0002248 magnetization       0.3156121
 augmentation part      -25.7016210 magnetization       0.0223423

 Broyden mixing:
  rms(total) = 0.12814E-01    rms(broyden)= 0.12810E-01
  rms(prec ) = 0.13828E-01
  weight for this iteration     100.00

 eigenvalues of (default mixing * dielectric matrix)
  average eigenvalue GAMMA=   1.3683
  2.9680  2.4566  1.5188  1.1053  0.9082  0.7461  0.6338  0.6094

 Free energy of the ion-electron system (eV)
  ---------------------------------------------------
  alpha Z        PSCENC =       316.14514549
  Ewald energy   TEWEN  =    -12947.38204056
  -Hartree energ DENC   =     -1665.57135112
  -exchange      EXHF   =         0.00000000
  -V(xc)+E(xc)   XCENC  =      -742.21120246
  PAW double counting   =    153653.96215073  -151931.92111302
  entropy T*S    EENTRO =        -0.04382767
  eigenvalues    EBANDS =      2758.66444613
  atomic energy  EATOM  =     10306.12861560
  Solvation  Ediel_sol  =         0.00000000
  ---------------------------------------------------
  free energy    TOTEN  =      -252.22917689 eV

  energy without entropy =     -252.18534922  energy(sigma->0) =     -252.20726306


--------------------------------------------------------------------------------------------------------




--------------------------------------- Iteration      1(  14)  ---------------------------------------


    POTLOK:  cpu time    0.0434: real time    0.0436
    SETDIJ:  cpu time    0.0286: real time    0.0287
    EDDIAG:  cpu time    0.2859: real time    0.2870
  RMM-DIIS:  cpu time    0.7573: real time    0.7627
    ORTHCH:  cpu time    0.0872: real time    0.0875
       DOS:  cpu time    0.0003: real time    0.0003
    CHARGE:  cpu time    0.0383: real time    0.0384
    MIXING:  cpu time    0.0018: real time    0.0018
    --------------------------------------------
      LOOP:  cpu time    1.2428: real time    1.2501

 eigenvalue-minimisations  :  1463
 total energy-change (2. order) :-0.6351909E-03  (-0.1011640E-03)
 number of electron     400.0002248 magnetization       0.1727417
 augmentation part      -25.7013849 magnetization       0.0073222

 Broyden mixing:
  rms(total) = 0.65213E-02    rms(broyden)= 0.65185E-02
  rms(prec ) = 0.69951E-02
  weight for this iteration     100.00

 eigenvalues of (default mixing * dielectric matrix)
  average eigenvalue GAMMA=   1.3942
  3.2420  2.3699  1.8530  1.3067  0.9276  0.9276  0.6583  0.6583  0.6042

 Free energy of the ion-electron system (eV)
  ---------------------------------------------------
  alpha Z        PSCENC =       316.14514549
  Ewald energy   TEWEN  =    -12947.38204056
  -Hartree energ DENC   =     -1665.67450586
  -exchange      EXHF   =         0.00000000
  -V(xc)+E(xc)   XCENC  =      -742.19071212
  PAW double counting   =    153602.88410009  -151880.85948826
  entropy T*S    EENTRO =        -0.04395306
  eigenvalues    EBANDS =      2758.76302660
  atomic energy  EATOM  =     10306.12861560
  Solvation  Ediel_sol  =         0.00000000
  ---------------------------------------------------
  free energy    TOTEN  =      -252.22981208 eV

  energy without entropy =     -252.18585902  energy(sigma->0) =     -252.20783555


--------------------------------------------------------------------------------------------------------




--------------------------------------- Iteration      1(  15)  ---------------------------------------


    POTLOK:  cpu time    0.0434: real time    0.0436
    SETDIJ:  cpu time    0.0286: real time    0.0287
    EDDIAG:  cpu time    0.2857: real time    0.2869
  RMM-DIIS:  cpu time    0.7547: real time    0.7600
    ORTHCH:  cpu time    0.0871: real time    0.0875
       DOS:  cpu time    0.0003: real time    0.0003
    CHARGE:  cpu time    0.0384: real time    0.0385
    MIXING:  cpu time    0.0020: real time    0.0020
    --------------------------------------------
      LOOP:  cpu time    1.2402: real time    1.2475

 eigenvalue-minimisations  :  1446
 total energy-change (2. order) :-0.2039447E-03  (-0.3529565E-04)
 number of electron     400.0002248 magnetization       0.0802683
 augmentation part      -25.7011391 magnetization      -0.0114975

 Broyden mixing:
  rms(total) = 0.36284E-02    rms(broyden)= 0.36266E-02
  rms(prec ) = 0.37952E-02
  weight for this iteration     100.00

 eigenvalues of (default mixing * dielectric matrix)
  average eigenvalue GAMMA=   1.4430
  3.5671  2.3143  2.3143  1.4956  1.1192  0.8647  0.8647  0.6065  0.6420  0.6420

 Free energy of the ion-electron system (eV)
  ---------------------------------------------------
  alpha Z        PSCENC =       316.14514549
  Ewald energy   TEWEN  =    -12947.38204056
  -Hartree energ DENC   =     -1665.73411292
  -exchange      EXHF   =         0.00000000
  -V(xc)+E(xc)   XCENC  =      -742.18461940
  PAW double counting   =    153595.34143565  -151873.32443313
  entropy T*S    EENTRO =        -0.04406672
  eigenvalues    EBANDS =      2758.82405996
  atomic energy  EATOM  =     10306.12861560
  Solvation  Ediel_sol  =         0.00000000
  ---------------------------------------------------
  free energy    TOTEN  =      -252.23001603 eV

  energy without entropy =     -252.18594930  energy(sigma->0) =     -252.20798267


--------------------------------------------------------------------------------------------------------




--------------------------------------- Iteration      1(  16)  ---------------------------------------


    POTLOK:  cpu time    0.0434: real time    0.0435
    SETDIJ:  cpu time    0.0286: real time    0.0287
    EDDIAG:  cpu time    0.2856: real time    0.2868
  RMM-DIIS:  cpu time    0.7482: real time    0.7533
    ORTHCH:  cpu time    0.0864: real time    0.0868
       DOS:  cpu time    0.0003: real time    0.0003
    CHARGE:  cpu time    0.0383: real time    0.0384
    MIXING:  cpu time    0.0021: real time    0.0021
    --------------------------------------------
      LOOP:  cpu time    1.2329: real time    1.2400

 eigenvalue-minimisations  :  1416
 total energy-change (2. order) :-0.7304107E-04  (-0.1441329E-04)
 number of electron     400.0002248 magnetization       0.0310036
 augmentation part      -25.7009803 magnetization      -0.0108390

 Broyden mixing:
  rms(total) = 0.18362E-02    rms(broyden)= 0.18347E-02
  rms(prec ) = 0.19332E-02
  weight for this iteration     100.00

 eigenvalues of (default mixing * dielectric matrix)
  average eigenvalue GAMMA=   1.4638
  3.7859  2.4510  2.4510  1.6481  1.2522  0.9347  0.9347  0.7667  0.6081  0.6350
  0.6350

 Free energy of the ion-electron system (eV)
  ---------------------------------------------------
  alpha Z        PSCENC =       316.14514549
  Ewald energy   TEWEN  =    -12947.38204056
  -Hartree energ DENC   =     -1665.74825953
  -exchange      EXHF   =         0.00000000
  -V(xc)+E(xc)   XCENC  =      -742.18614291
  PAW double counting   =    153589.64292033  -151867.62630661
  entropy T*S    EENTRO =        -0.04404651
  eigenvalues    EBANDS =      2758.84002564
  atomic energy  EATOM  =     10306.12861560
  Solvation  Ediel_sol  =         0.00000000
  ---------------------------------------------------
  free energy    TOTEN  =      -252.23008907 eV

  energy without entropy =     -252.18604255  energy(sigma->0) =     -252.20806581


--------------------------------------------------------------------------------------------------------




--------------------------------------- Iteration      1(  17)  ---------------------------------------


    POTLOK:  cpu time    0.0434: real time    0.0435
    SETDIJ:  cpu time    0.0286: real time    0.0287
    EDDIAG:  cpu time    0.2858: real time    0.2870
  RMM-DIIS:  cpu time    0.6328: real time    0.6371
    ORTHCH:  cpu time    0.0865: real time    0.0869
       DOS:  cpu time    0.0003: real time    0.0003
    CHARGE:  cpu time    0.0383: real time    0.0384
    MIXING:  cpu time    0.0023: real time    0.0023
    --------------------------------------------
      LOOP:  cpu time    1.1180: real time    1.1243

 eigenvalue-minimisations  :  1173
 total energy-change (2. order) :-0.1468550E-04  (-0.4074221E-05)
 number of electron     400.0002248 magnetization       0.0115409
 augmentation part      -25.7009415 magnetization      -0.0049085

 Broyden mixing:
  rms(total) = 0.80152E-03    rms(broyden)= 0.80046E-03
  rms(prec ) = 0.89542E-03
  weight for this iteration     100.00

 eigenvalues of (default mixing * dielectric matrix)
  average eigenvalue GAMMA=   1.4728
  3.9362  2.5226  2.5226  1.8462  1.3799  1.0953  0.9262  0.8565  0.7171  0.6303
  0.6303  0.6106

 Free energy of the ion-electron system (eV)
  ---------------------------------------------------
  alpha Z        PSCENC =       316.14514549
  Ewald energy   TEWEN  =    -12947.38204056
  -Hartree energ DENC   =     -1665.74626348
  -exchange      EXHF   =         0.00000000
  -V(xc)+E(xc)   XCENC  =      -742.18945455
  PAW double counting   =    153585.28913804  -151863.27002994
  entropy T*S    EENTRO =        -0.04405877
  eigenvalues    EBANDS =      2758.83884440
  atomic energy  EATOM  =     10306.12861560
  Solvation  Ediel_sol  =         0.00000000
  ---------------------------------------------------
  free energy    TOTEN  =      -252.23010375 eV

  energy without entropy =     -252.18604499  energy(sigma->0) =     -252.20807437


--------------------------------------------------------------------------------------------------------




--------------------------------------- Iteration      1(  18)  ---------------------------------------


    POTLOK:  cpu time    0.0434: real time    0.0435
    SETDIJ:  cpu time    0.0286: real time    0.0287
    EDDIAG:  cpu time    0.2856: real time    0.2868
  RMM-DIIS:  cpu time    0.4482: real time    0.4511
    ORTHCH:  cpu time    0.0864: real time    0.0868
       DOS:  cpu time    0.0003: real time    0.0003
    --------------------------------------------
      LOOP:  cpu time    0.8925: real time    0.8972

 eigenvalue-minimisations  :   765
 total energy-change (2. order) :-0.2423476E-06  (-0.9257035E-06)
 number of electron     400.0002248 magnetization       0.0115409
 augmentation part      -25.7009415 magnetization      -0.0049085

 Free energy of the ion-electron system (eV)
  ---------------------------------------------------
  alpha Z        PSCENC =       316.14514549
  Ewald energy   TEWEN  =    -12947.38204056
  -Hartree energ DENC   =     -1665.73841191
  -exchange      EXHF   =         0.00000000
  -V(xc)+E(xc)   XCENC  =      -742.19191843
  PAW double counting   =    153581.89367106  -151859.87227717
  entropy T*S    EENTRO =        -0.04404990
  eigenvalues    EBANDS =      2758.83116182
  atomic energy  EATOM  =     10306.12861560
  Solvation  Ediel_sol  =         0.00000000
  ---------------------------------------------------
  free energy    TOTEN  =      -252.23010400 eV

  energy without entropy =     -252.18605410  energy(sigma->0) =     -252.20807905


--------------------------------------------------------------------------------------------------------




 average (electrostatic) potential at core
  the test charge radii are     0.9892
  (the norm of the test charge is              1.0000)
       1 -75.4446       2 -75.3488       3 -75.2699       4 -75.2022       5 -75.6959
       6 -75.3565       7 -75.2142       8 -75.2286       9 -75.7159      10 -75.4986
      11 -75.5238      12 -75.0087      13 -75.3265      14 -75.2314      15 -75.3047
      16 -75.6645      17 -75.7078      18 -75.4356      19 -75.6769      20 -75.2956
      21 -75.4352      22 -75.1027      23 -75.4038      24 -75.4741      25 -75.2951
      26 -75.4985      27 -75.6943      28 -75.3570      29 -75.2854      30 -75.4571
      31 -75.3701      32 -75.5937      33 -75.6735      34 -75.3373      35 -75.0373
      36 -75.3245      37 -76.0003      38 -75.2040      39 -75.1110      40 -75.8986
      41 -75.2735      42 -75.5555      43 -75.3407      44 -75.2714      45 -75.6076
      46 -75.2572      47 -75.4328      48 -75.4548      49 -75.6164      50 -75.3376
      51 -75.4166      52 -75.6082      53 -75.7986      54 -75.2185      55 -75.2616
      56 -75.2766      57 -75.3673      58 -75.3440      59 -75.2529      60 -75.6906
      61 -75.4971      62 -75.6963      63 -75.2124      64 -75.6702      65 -75.7025
      66 -75.6024      67 -75.2225      68 -75.4858      69 -75.3076      70 -75.2119
      71 -75.2865      72 -75.5361      73 -75.5368      74 -75.3547      75 -75.1387
      76 -75.7752      77 -75.7859      78 -75.3419      79 -75.3321      80 -75.2912
      81 -75.2091      82 -75.6572      83 -75.3637      84 -75.4542      85 -75.5837
      86 -75.5599      87 -75.5751      88 -75.4542      89 -75.6683      90 -75.5809
      91 -75.9494      92 -75.0902      93 -75.5999      94 -75.7889      95 -75.3074
      96 -75.3032      97 -75.2696      98 -75.3304      99 -75.5875     100 -75.4050
 
 
 
 E-fermi :  14.1844     XC(G=0): -12.1878     alpha+bet :-22.5249


 spin component 1

 k-point     1 :       0.0000    0.0000    0.0000
  band No.  band energies     occupation 
      1      -4.8504      1.00000
      2      -3.7003      1.00000
      3      -3.5507      1.00000
      4      -3.4541      1.00000
      5      -2.9936      1.00000
      6      -2.8511      1.00000
[...]
   -.497E+02 -.128E+02 -.146E+02   0.515E+02 0.127E+02 0.140E+02   -.175E+01 0.230E+00 0.463E+00   0.758E-03 0.103E-02 0.720E-04
   -.701E+02 0.972E+00 0.499E+02   0.726E+02 -.122E+01 -.517E+02   -.144E+01 0.220E+00 0.309E-01   0.767E-03 0.482E-03 0.668E-03
   0.831E+02 -.154E+02 -.200E+01   -.804E+02 0.165E+02 0.195E+01   -.862E+01 -.985E+00 0.337E-01   -.517E-03 0.103E-02 0.910E-05
   0.459E+02 0.364E+02 -.232E+02   -.471E+02 -.370E+02 0.235E+02   0.117E+00 0.182E+00 0.191E+00   -.333E-03 0.542E-03 -.139E-04
   0.544E+02 0.308E+02 0.254E+02   -.545E+02 -.326E+02 -.258E+02   -.145E+00 0.964E+00 -.792E+00   -.145E-03 -.107E-03 -.317E-03
   0.731E+02 -.297E+02 0.173E+01   -.732E+02 0.303E+02 -.251E+01   -.313E+00 0.611E+00 0.404E+00   0.432E-04 -.353E-03 -.548E-03
   0.630E+02 0.354E+02 -.794E+02   -.638E+02 -.371E+02 0.767E+02   0.378E+00 0.680E+00 0.776E+01   -.679E-03 0.564E-03 -.375E-03
   -.652E+02 0.670E+02 0.384E+01   0.612E+02 -.648E+02 -.347E+01   0.101E+02 -.834E+01 -.618E+00   0.471E-03 -.806E-04 0.882E-04
   -.365E+02 0.733E+02 -.169E+02   0.369E+02 -.703E+02 0.123E+02   0.170E+00 -.830E+01 0.923E+01   -.219E-03 -.373E-04 0.246E-03
   0.825E+02 -.391E+02 -.510E+02   -.840E+02 0.395E+02 0.476E+02   0.722E+00 -.120E+00 0.857E+01   -.334E-03 0.259E-03 -.499E-03
   -.237E+02 -.263E+01 -.171E+02   0.235E+02 0.231E+01 0.184E+02   0.311E+00 0.506E+00 -.112E+01   0.548E-03 0.127E-02 -.610E-03
   -.858E+02 0.293E+02 -.812E+01   0.827E+02 -.300E+02 0.754E+01   0.806E+01 0.630E+00 0.540E+00   0.706E-03 -.921E-03 -.353E-03
   -.756E+02 -.287E+02 -.527E+02   0.767E+02 0.295E+02 0.505E+02   -.791E+00 -.624E+00 0.726E+01   0.266E-03 -.931E-03 0.635E-03
   0.106E+03 0.390E+02 -.565E+02   -.105E+03 -.354E+02 0.539E+02   -.705E+01 -.860E+01 0.822E+01   -.541E-03 0.460E-03 -.128E-03
   0.110E+03 0.646E+02 0.308E+01   -.106E+03 -.647E+02 -.261E+01   -.983E+01 -.571E+00 -.483E+00   -.608E-03 0.300E-03 0.204E-03
   -.730E+01 -.910E+02 -.639E+01   0.723E+01 0.897E+02 0.770E+01   0.193E-02 0.750E+01 -.132E+01   0.949E-03 0.463E-04 0.714E-03
   0.162E+02 -.637E+01 -.524E+02   -.205E+02 0.671E+01 0.503E+02   0.879E+01 -.786E-01 0.771E+01   0.860E-04 -.855E-03 0.466E-03
   0.585E+01 -.374E+02 0.222E+02   -.354E+01 0.375E+02 -.200E+02   -.782E+01 0.854E-01 -.723E+01   -.396E-03 0.239E-03 -.708E-03
   -.552E+02 -.780E+02 -.574E+01   0.559E+02 0.798E+02 0.552E+01   -.707E+00 -.394E+00 0.526E+00   0.689E-03 -.446E-03 0.746E-03
   -.948E+01 -.730E+02 0.665E+01   0.968E+01 0.752E+02 -.696E+01   -.802E-01 -.807E+00 -.390E-01   0.729E-03 -.418E-04 0.591E-03
   -.220E+02 -.426E+02 -.799E+02   0.227E+02 0.392E+02 0.777E+02   -.576E+00 0.939E+01 0.757E+01   -.380E-03 0.919E-03 -.821E-03
   0.594E+02 -.938E+02 0.169E+01   -.605E+02 0.916E+02 -.190E+01   0.561E+00 0.734E+01 0.156E+00   -.188E-03 -.126E-03 0.394E-03
   0.596E+02 0.126E+02 0.655E+01   -.611E+02 -.137E+02 -.646E+01   0.984E+00 0.829E+00 -.358E-01   -.153E-04 -.563E-03 -.420E-04
   -.750E+01 -.103E+02 -.717E+01   0.697E+01 0.983E+01 0.661E+01   0.139E+00 -.189E-01 0.324E+00   0.786E-03 0.117E-02 0.724E-04
   0.620E+02 0.114E+03 -.132E+02   -.625E+02 -.110E+03 0.134E+02   -.402E+00 -.922E+01 0.105E+00   -.815E-03 -.231E-03 0.194E-03
   -.264E+02 -.499E+02 0.553E+01   0.278E+02 0.483E+02 -.491E+01   -.109E+01 0.698E+01 0.222E+00   0.881E-04 -.427E-03 -.678E-03
   0.490E+02 -.530E+01 -.185E+01   -.504E+02 0.197E+01 0.218E+01   0.147E+01 0.872E+01 -.474E+00   -.879E-03 0.103E-02 -.197E-03
   0.258E+02 0.576E+02 -.203E+02   -.256E+02 -.592E+02 0.213E+02   0.626E+00 0.554E+00 -.321E+00   -.202E-03 -.967E-04 -.221E-03
   -.312E+02 0.205E+02 0.452E+02   0.315E+02 -.203E+02 -.466E+02   -.225E+00 0.708E-01 0.840E+00   -.164E-03 0.783E-03 0.427E-03
   0.450E+02 0.437E+02 -.299E+01   -.463E+02 -.456E+02 0.313E+01   0.113E+01 0.437E+00 0.319E+00   -.548E-04 -.737E-03 0.374E-03
   -.567E+02 -.136E+01 0.132E+02   0.572E+02 0.862E+00 -.128E+02   0.248E+00 -.263E-01 -.148E+00   0.967E-03 0.846E-03 0.474E-03
   -.720E+02 -.122E+02 -.518E+02   0.734E+02 0.123E+02 0.533E+02   0.885E-01 0.405E+00 0.239E+00   0.640E-03 0.983E-03 -.883E-03
   0.633E+02 -.192E+02 0.107E+02   -.641E+02 0.190E+02 -.106E+02   -.285E+00 0.172E+00 0.313E+00   -.706E-03 0.476E-03 0.565E-03
   -.977E+02 0.589E+02 -.198E+02   0.956E+02 -.597E+02 0.204E+02   0.764E+01 0.525E-01 0.328E+00   0.414E-03 -.853E-04 0.293E-03
   0.912E+02 0.386E+02 -.261E+01   -.889E+02 -.393E+02 0.274E+01   -.816E+01 -.264E+00 -.333E-01   -.337E-03 0.586E-04 0.322E-04
   -.139E+02 -.598E+02 0.436E+02   0.139E+02 0.587E+02 -.414E+02   0.393E+00 0.687E+01 -.784E+01   0.776E-03 -.114E-02 0.372E-03
   0.679E+02 0.790E+01 -.157E+02   -.695E+02 -.673E+01 0.164E+02   0.357E+00 -.116E+01 -.378E+00   -.230E-03 0.452E-03 -.440E-03
   0.769E+02 0.718E+02 0.581E+02   -.776E+02 -.677E+02 -.562E+02   0.291E+00 -.965E+01 -.788E+01   -.171E-03 -.209E-04 -.304E-03
   0.554E+02 -.555E+02 0.239E+00   -.560E+02 0.568E+02 0.406E+00   0.627E+00 -.196E+00 -.419E+00   -.506E-03 -.206E-03 0.859E-03
   -.147E+02 0.109E+03 0.765E+01   0.141E+02 -.106E+03 -.875E+01   0.336E+00 -.764E+01 0.944E+00   -.487E-03 -.157E-03 0.348E-03
   -.223E+02 0.470E+02 0.318E+02   0.228E+02 -.482E+02 -.281E+02   -.220E+00 0.559E+00 -.937E+01   -.283E-03 0.780E-03 -.110E-03
   -.650E+02 -.107E+03 -.126E+02   0.667E+02 0.107E+03 0.132E+02   -.982E+00 0.703E+01 0.801E-01   0.566E-03 -.191E-03 0.318E-03
   -.160E+01 0.951E+02 -.826E+01   -.144E+01 -.945E+02 0.789E+01   0.849E+01 -.649E+01 0.561E+00   -.183E-03 -.540E-03 0.206E-03
   0.331E+02 0.325E+02 -.807E+01   -.338E+02 -.336E+02 0.808E+01   0.432E+00 0.101E+01 -.340E+00   -.509E-03 0.962E-03 -.959E-04
   -.959E+02 0.491E+02 0.774E+01   0.946E+02 -.505E+02 -.837E+01   0.719E+01 0.865E+00 0.801E+00   0.740E-03 0.616E-03 0.252E-03
   -.871E+02 -.109E+02 0.393E+02   0.885E+02 0.109E+02 -.356E+02   -.798E+00 -.336E+00 -.867E+01   0.469E-03 -.970E-03 -.448E-03
   -.250E+02 0.327E+02 0.325E+02   0.257E+02 -.336E+02 -.334E+02   -.152E+00 0.235E+00 0.208E+00   0.486E-03 0.104E-03 0.100E-03
   -.257E+02 0.485E+02 -.217E+02   0.265E+02 -.496E+02 0.224E+02   -.784E-01 0.910E-01 -.566E+00   0.479E-03 0.412E-03 -.145E-03
   -.186E+02 -.181E+02 -.391E+02   0.189E+02 0.187E+02 0.348E+02   -.142E+00 -.748E-01 0.943E+01   0.431E-03 -.500E-03 -.520E-05
   0.938E+02 0.813E+02 -.554E+02   -.896E+02 -.790E+02 0.529E+02   -.961E+01 -.858E+01 0.884E+01   -.814E-03 -.636E-03 0.120E-03
   -.295E+02 0.936E+02 0.310E+01   0.330E+02 -.927E+02 -.333E+01   -.785E+01 -.701E+01 0.454E+00   0.600E-03 -.517E-03 0.294E-03
   -.114E+03 -.941E+01 0.741E-01   0.112E+03 0.979E+01 0.530E+00   0.759E+01 -.761E+00 -.785E+00   0.247E-03 -.750E-03 0.116E-03
   0.627E+02 0.161E+02 0.294E+02   -.635E+02 -.163E+02 -.305E+02   -.331E+00 0.648E+00 0.658E+00   -.415E-03 0.187E-03 0.551E-04
   -.647E+02 -.165E+02 -.129E+02   0.615E+02 0.175E+02 0.134E+02   0.859E+01 -.899E+00 -.459E+00   -.270E-03 0.905E-03 -.252E-03
   -.203E+02 0.833E+02 -.557E+02   0.205E+02 -.811E+02 0.529E+02   0.189E+00 -.805E+01 0.854E+01   0.798E-03 -.366E-03 0.970E-04
   -.276E+02 -.398E+02 -.199E+01   0.279E+02 0.411E+02 0.313E+01   0.271E+00 -.457E+00 -.218E+00   0.533E-03 0.333E-03 -.704E-03
   -.654E+02 -.239E+02 0.621E+00   0.624E+02 0.253E+02 -.789E+00   0.907E+01 -.908E+00 0.250E+00   0.429E-03 0.409E-03 -.722E-03
   -.188E+02 0.260E+02 0.456E+01   0.193E+02 -.269E+02 -.374E+01   -.424E+00 0.719E+00 -.549E+00   0.513E-03 -.855E-03 0.147E-03
   -.439E+02 0.282E+02 0.213E+02   0.452E+02 -.251E+02 -.222E+02   -.741E+00 -.872E+01 0.707E+00   -.231E-03 0.732E-03 0.544E-03
   -.131E+02 0.814E+02 -.972E+01   0.132E+02 -.797E+02 0.914E+01   -.104E+00 -.796E+01 0.679E-01   0.795E-03 0.608E-03 -.979E-04
   -.113E+03 0.458E+01 0.296E+01   0.113E+03 -.578E+01 -.286E+01   0.631E+01 0.163E+01 -.458E-02   0.681E-03 0.547E-03 -.330E-03
   -.618E+01 -.109E+02 0.600E+01   0.583E+01 0.117E+02 -.560E+01   0.329E+00 -.790E+00 -.153E+00   0.791E-03 0.546E-03 0.551E-03
   -.113E+03 0.225E+02 0.124E+01   0.110E+03 -.186E+02 -.224E+01   0.818E+01 -.898E+01 0.105E+01   0.449E-03 -.799E-03 -.815E-03
   -.151E+02 0.426E+02 -.443E+01   0.156E+02 -.437E+02 0.534E+01   -.256E+00 0.462E-01 -.197E+00   0.739E-03 0.534E-03 0.419E-04
   -.624E+02 -.129E+02 0.832E+01   0.616E+02 0.115E+02 -.885E+01   0.681E+01 0.103E+01 0.528E+00   -.517E-03 -.719E-03 -.296E-03
   0.694E+02 -.161E+02 0.743E+02   -.706E+02 0.122E+02 -.724E+02   0.746E+00 0.901E+01 -.745E+01   -.478E-03 0.616E-03 0.232E-03
   0.972E+02 -.884E+02 0.703E+01   -.943E+02 0.862E+02 -.738E+01   -.854E+01 0.817E+01 -.491E-01   -.571E-03 -.563E-04 -.528E-03
   0.971E+02 -.227E+02 0.587E+02   -.939E+02 0.240E+02 -.550E+02   -.920E+01 -.106E+01 -.874E+01   0.274E-04 -.108E-02 0.105E-04
   0.922E+02 0.164E+02 0.170E+02   -.903E+02 -.175E+02 -.174E+02   -.753E+01 0.118E+01 0.487E+00   -.696E-03 0.841E-03 0.215E-03
   0.419E+02 0.230E+02 0.425E+01   -.422E+02 -.233E+02 -.383E+01   0.601E-01 0.165E+00 -.182E+00   -.596E-03 0.688E-03 0.155E-04
   0.675E+02 -.299E+02 -.135E+02   -.674E+02 0.295E+02 0.140E+02   -.339E+00 0.687E+00 0.139E-01   -.221E-03 0.411E-03 -.745E-03
 -----------------------------------------------------------------------------------------------
   0.878E+01 0.190E+01 -.263E+01   -.156E-12 -.131E-12 0.107E-12   -.879E+01 -.191E+01 0.263E+01   0.456E-02 0.810E-02 -.913E-03
 
 
 POSITION                                       TOTAL-FORCE (eV/Angst)
 -----------------------------------------------------------------------------------
      8.16920      6.12690      2.04230         5.619024     -0.472161     -5.554283
      8.16920      8.16920      0.00000        -0.093482     -5.433355      5.407698
      6.12690      2.04230      4.08460         1.009855     -0.010512     -5.968829
      8.16920      2.04230      8.16920         0.011234      5.433867      5.675128
      4.08460      0.00000      4.08460        -0.355519      0.144489     -0.163527
      6.12690      8.16920      8.16920         0.182213     -0.123264     -0.735527
      6.12690      6.12690      4.08460         0.391251     -0.052410     -0.491450
      6.12690      6.12690      2.04230        -5.626329      4.851380     -0.490417
      4.08460      0.00000      2.04230         0.966401      0.309991      0.072918
      0.00000      0.00000      0.00000        -1.105471      0.660265     -4.917570
      2.04230      2.04230      4.08460        -6.365794     -0.127837     -0.426179
      8.16920      2.04230      4.08460         4.959082      4.935750     -0.427710
      0.00000      2.04230      8.16920        -0.572067      0.683011      0.477190
      8.16920      2.04230      6.12690         0.261056      5.817070     -0.591062
      0.00000      2.04230      6.12690        -0.369030      0.913773     -5.455341
      2.04230      0.00000      4.08460        -5.879180      0.358521     -0.032887
      0.00000      0.00000      6.12690        -0.358370     -0.019919      0.071355
      2.04230      2.04230      0.00000        -0.263419      1.063119     -0.116353
      4.08460      2.04230      4.08460         0.328722      0.826028     -0.610626
      6.12690      8.16920      4.08460         0.623611     -0.034637     -5.413609
      6.12690      8.16920      0.00000         0.889154     -0.609871      5.828812
      0.00000      4.08460      6.12690        -4.885456     -0.198317      0.304151
      6.12690      2.04230      0.00000         6.277966      0.466252      5.601087
      4.08460      6.12690      4.08460        -0.048371     -0.607219     -5.397328
      8.16920      0.00000      4.08460         5.168727     -0.093069     -5.605671
      0.00000      4.08460      2.04230        -5.336641      5.938550     -0.206515
      2.04230      0.00000      0.00000        -0.508767      0.366105     -0.637458
      2.04230      4.08460      4.08460        -5.675527      0.023287      0.349837
      4.08460      4.08460      0.00000        -0.113813      0.682886     -0.537107
      6.12690      0.00000      8.16920         0.109749      0.152352     -0.069932
      6.12690      0.00000      4.08460         1.034838     -0.030779     -1.775448
      2.04230      0.00000      8.16920        -5.923447      0.147325     -0.021334
      2.04230      8.16920      0.00000        -1.099497     -0.455208      0.441353
      2.04230      6.12690      4.08460        -0.266028     -0.798485     -1.226851
      2.04230      4.08460      2.04230        -0.428162      1.135997     -0.377799
      0.00000      8.16920      0.00000        -0.414259     -0.942690      5.113203
      4.08460      8.16920      2.04230         6.048230     -6.214509     -0.254169
      8.16920      6.12690      4.08460         0.506580     -5.271768      4.639342
      0.00000      2.04230      2.04230        -0.744147      0.343856      5.205689
      4.08460      0.00000      0.00000         0.117099      0.193311      0.150143
      6.12690      6.12690      0.00000         4.890160     -0.081247     -0.038879
      6.12690      4.08460      6.12690         0.280065      0.161464      5.143814
      0.00000      0.00000      2.04230        -5.814973     -4.957294      5.645377
      0.00000      6.12690      6.12690        -6.163674     -0.691346     -0.007762
      4.08460      2.04230      6.12690        -0.067558      6.130099     -0.017290
      2.04230      4.08460      6.12690         4.495698      0.261348      5.552232
      8.16920      2.04230      2.04230        -5.514632      0.138204     -5.045167
      6.12690      2.04230      6.12690         0.012547      1.396757      0.313096
      4.08460      2.04230      8.16920         0.112563      1.391021     -0.356744
      8.16920      0.00000      0.00000         0.112191      5.930239      5.433410
      2.04230      2.04230      8.16920        -0.498264      5.141308     -0.055188
      2.04230      6.12690      2.04230        -0.546345     -0.308504      0.054954
      4.08460      0.00000      8.16920        -0.395962     -0.476521     -0.231019
      0.00000      6.12690      8.16920        -0.929764     -5.649761      0.295853
      4.08460      4.08460      2.04230         0.279967      5.383281      0.842661
      0.00000      8.16920      8.16920        -0.001574      5.387717     -0.145607
      2.04230      6.12690      6.12690         0.835509     -1.071314      0.703554
      8.16920      8.16920      4.08460         0.101235      0.230034     -0.475470
      2.04230      6.12690      0.00000        -0.088597     -1.466391      0.458865
      6.12690      0.00000      6.12690         0.686315     -0.527271      0.298679
      6.12690      0.00000      0.00000         1.427981      0.590550      1.781232
      2.04230      0.00000      6.12690        -1.073352     -0.040002      0.414026
      6.12690      6.12690      6.12690         5.599110     -0.706934      0.912506
      2.04230      8.16920      2.04230        -5.893726     -1.006250      0.098018
      4.08460      4.08460      8.16920         0.372085      5.808014     -5.658955
      2.04230      0.00000      2.04230        -1.304563      0.007282      0.402535
      0.00000      6.12690      4.08460        -0.410461     -5.531889     -6.022738
      2.04230      2.04230      6.12690        -0.006800      1.156178      0.227243
      8.16920      6.12690      8.16920        -0.205884     -4.981352     -0.150811
      8.16920      8.16920      8.16920         0.261094     -0.600554     -5.646074
      6.12690      2.04230      8.16920         0.768947      6.090668      0.770288
      2.04230      6.12690      8.16920         5.440963     -5.860894      0.190812
      2.04230      8.16920      8.16920        -0.231748      0.004076     -0.322601
      6.12690      8.16920      6.12690         5.925507     -0.556229      0.171880
      6.12690      4.08460      0.00000         0.645702     -0.307376     -4.980846
      4.08460      8.16920      4.08460         0.621792     -0.681551     -0.697541
      4.08460      8.16920      0.00000         0.728000     -1.041416      0.112585
      4.08460      4.08460      4.08460         0.215142      0.560133      5.055090
      0.00000      6.12690      0.00000        -5.388145     -6.218300      6.323440
      6.12690      6.12690      8.16920        -4.383500     -6.115016      0.222811
      6.12690      4.08460      4.08460         5.747186     -0.371969     -0.181523
      2.04230      8.16920      4.08460        -1.156766      0.374543     -0.409778
      8.16920      0.00000      8.16920         5.427702      0.136345     -0.004584
      4.08460      6.12690      6.12690         0.418924     -5.807668      5.731034
      4.08460      2.04230      0.00000         0.572148      0.783802      0.927867
      4.08460      2.04230      2.04230         6.052250      0.500263      0.080592
      4.08460      6.12690      0.00000         0.141450     -0.228474      0.268789
      8.16920      0.00000      6.12690         0.540851     -5.563382     -0.188607
      4.08460      8.16920      8.16920        -0.034829     -6.210577     -0.507607
      6.12690      0.00000      2.04230         6.050509      0.427042      0.094486
      4.08460      0.00000      6.12690        -0.018292      0.032416      0.252034
      6.12690      4.08460      2.04230         5.205072     -5.059403      0.056570
      4.08460      8.16920      6.12690         0.221772     -1.051217      0.708444
      8.16920      4.08460      0.00000         5.960611     -0.313143     -0.003950
      0.00000      8.16920      4.08460        -0.433174      5.085303     -5.571215
      0.00000      2.04230      0.00000        -5.653539      5.961675     -0.394859
      2.04230      4.08460      0.00000        -5.995672      0.212438     -5.084226
      0.00000      8.16920      6.12690        -5.622506      0.161204      0.039320
      2.04230      8.16920      6.12690        -0.177378     -0.179490      0.237655
      2.04230      2.04230      2.04230        -0.211386      0.268158      0.544365
 -----------------------------------------------------------------------------------
    total drift:                               -0.000058     -0.000286      0.000052


--------------------------------------------------------------------------------------------------------



  FREE ENERGIE OF THE ION-ELECTRON SYSTEM (eV)
  ---------------------------------------------------
  free  energy   TOTEN  =      -252.23010400 eV

  energy  without entropy=     -252.18605410  energy(sigma->0) =     -252.20807905
 


--------------------------------------------------------------------------------------------------------


    POTLOK:  cpu time    0.0734: real time    0.0736


--------------------------------------------------------------------------------------------------------


     LOOP+:  cpu time   26.9451: real time   27.5210
    4ORBIT:  cpu time    0.0000: real time    0.0000

 total amount of memory used by VASP MPI-rank0    53807. kBytes
=======================================================================

   base      :      30000. kBytes
   nonlr-proj:       8139. kBytes
   fftplans  :       1377. kBytes
   grid      :       7520. kBytes
   one-center:        614. kBytes
   wavefun   :       6157. kBytes
 
  
  
 General timing and accounting informations for this job:
 ========================================================
  
                  Total CPU time used (sec):       28.001
                            User time (sec):       27.164
                          System time (sec):        0.838
                         Elapsed time (sec):       29.688
  
                   Maximum memory used (kb):      178548.
                   Average memory used (kb):           0.
  
                          Minor page faults:        57642
                          Major page faults:            0
                 Voluntary context switches:          829
