<?xml version="1.0" encoding="ISO-8859-1"?>
<modeling>
 <generator>
  <i name="program" type="string">vasp </i>
  <i name="version" type="string">5.4.4.18Apr17-6-g9f103f2a35  </i>
  <i name="subversion" type="string">(build Sep 16 2020 16:20:45) complex            parallel </i>
  <i name="platform" type="string">LinuxIFC </i>
  <i name="date" type="string">2021 08 05 </i>
  <i name="time" type="string">12:00:42 </i>
 </generator>
 <incar>
  <i type="string" name="PREC">normal</i>
  <i type="string" name="ALGO"> Fast</i>
  <i type="int" name="ISPIN">     2</i>
  <i type="int" name="NELM">    60</i>
  <i type="int" name="NELMIN">     4</i>
  <i type="int" name="IBRION">     0</i>
  <i name="EDIFF">      0.00001000</i>
  <i type="int" name="ISIF">     7</i>
  <i type="int" name="ISYM">     0</i>
  <i name="POTIM">      0.30000000</i>
  <i name="TEBEG">   2000.00000000</i>
  <i name="TEEND">   2000.00000000</i>
  <i type="string" name="LREAL"> auto</i>
  <i type="int" name="ISMEAR">     0</i>
  <i name="SIGMA">      0.05000000</i>
  <i type="logical" name="LWAVE"> F  </i>
  <i type="logical" name="LCHARG"> F  </i>
  <v type="int" name="KPOINT_BSE">    -1     0     0     0</v>
  <i type="int" name="NELM">    60</i>
 </incar>
 <structure name="primitive_cell" >
  <crystal>
   <varray name="basis" >
    <v>      10.21149500       0.00000000       0.00000000 </v>
    <v>       0.00000000      10.21149500       0.00000000 </v>
    <v>       0.00000000       0.00000000      10.21149500 </v>
   </varray>
   <i name="volume">   1064.79986425 </i>
   <varray name="rec_basis" >
    <v>       0.09792885       0.00000000       0.00000000 </v>
    <v>       0.00000000       0.09792885       0.00000000 </v>
    <v>       0.00000000       0.00000000       0.09792885 </v>
   </varray>
  </crystal>
  <varray name="positions" >
   <v>      -0.20000000      -0.40000000       0.20000000 </v>
   <v>      -0.40000000      -0.40000000       0.20000000 </v>
   <v>      -0.20000000      -0.40000000       0.40000000 </v>
   <v>      -0.40000000      -0.40000000       0.40000000 </v>
   <v>      -0.20000000      -0.20000000       0.40000000 </v>
   <v>      -0.20000000      -0.20000000       0.00000000 </v>
   <v>      -0.40000000      -0.40000000       0.00000000 </v>
   <v>       0.00000000      -0.40000000       0.40000000 </v>
   <v>      -0.40000000       0.40000000       0.20000000 </v>
   <v>       0.00000000       0.40000000       0.20000000 </v>
   <v>       0.00000000      -0.40000000       0.00000000 </v>
   <v>      -0.20000000       0.40000000       0.00000000 </v>
   <v>      -0.40000000      -0.20000000       0.40000000 </v>
   <v>      -0.40000000      -0.20000000       0.00000000 </v>
   <v>      -0.40000000       0.40000000       0.40000000 </v>
   <v>       0.00000000      -0.20000000       0.40000000 </v>
   <v>       0.00000000      -0.20000000       0.00000000 </v>
   <v>      -0.40000000       0.40000000       0.00000000 </v>
   <v>      -0.20000000       0.20000000       0.20000000 </v>
   <v>       0.20000000      -0.40000000       0.20000000 </v>
   <v>      -0.20000000      -0.40000000      -0.20000000 </v>
   <v>      -0.20000000       0.20000000       0.40000000 </v>
   <v>       0.40000000      -0.40000000       0.40000000 </v>
   <v>      -0.20000000       0.00000000       0.40000000 </v>
   <v>       0.40000000      -0.20000000       0.20000000 </v>
   <v>      -0.40000000      -0.40000000      -0.40000000 </v>
   <v>      -0.40000000       0.00000000       0.20000000 </v>
   <v>       0.00000000       0.20000000       0.20000000 </v>
   <v>       0.00000000       0.00000000       0.20000000 </v>
   <v>       0.00000000      -0.40000000      -0.40000000 </v>
   <v>      -0.20000000       0.00000000       0.00000000 </v>
   <v>       0.40000000       0.40000000       0.20000000 </v>
   <v>       0.40000000      -0.40000000       0.00000000 </v>
   <v>       0.20000000      -0.40000000       0.40000000 </v>
   <v>       0.20000000      -0.20000000       0.20000000 </v>
   <v>      -0.20000000      -0.20000000      -0.20000000 </v>
   <v>      -0.40000000      -0.40000000      -0.20000000 </v>
   <v>       0.20000000       0.40000000       0.20000000 </v>
   <v>       0.00000000      -0.40000000      -0.20000000 </v>
   <v>       0.20000000      -0.40000000       0.00000000 </v>
   <v>      -0.40000000       0.20000000       0.40000000 </v>
   <v>      -0.40000000       0.00000000       0.40000000 </v>
   <v>      -0.40000000      -0.20000000      -0.40000000 </v>
   <v>       0.40000000      -0.20000000       0.40000000 </v>
   <v>      -0.40000000       0.20000000       0.00000000 </v>
   <v>      -0.40000000       0.40000000      -0.40000000 </v>
   <v>      -0.40000000       0.00000000       0.00000000 </v>
   <v>       0.40000000      -0.20000000       0.00000000 </v>
   <v>       0.40000000       0.40000000       0.40000000 </v>
   <v>       0.00000000      -0.20000000      -0.40000000 </v>
   <v>      -0.40000000      -0.20000000      -0.20000000 </v>
   <v>       0.20000000      -0.20000000       0.40000000 </v>
   <v>       0.00000000       0.00000000       0.00000000 </v>
   <v>       0.00000000       0.40000000      -0.40000000 </v>
   <v>       0.40000000       0.40000000       0.00000000 </v>
   <v>       0.00000000       0.20000000       0.00000000 </v>
   <v>       0.20000000       0.40000000       0.40000000 </v>
   <v>       0.20000000      -0.20000000       0.00000000 </v>
   <v>       0.00000000      -0.20000000      -0.20000000 </v>
   <v>       0.20000000       0.40000000       0.00000000 </v>
   <v>       0.40000000       0.00000000       0.20000000 </v>
   <v>      -0.20000000       0.20000000      -0.40000000 </v>
   <v>       0.40000000      -0.40000000      -0.40000000 </v>
   <v>       0.40000000       0.20000000       0.20000000 </v>
   <v>      -0.20000000       0.00000000      -0.40000000 </v>
   <v>      -0.20000000       0.20000000      -0.20000000 </v>
   <v>       0.20000000      -0.40000000      -0.40000000 </v>
   <v>       0.20000000       0.00000000       0.20000000 </v>
   <v>      -0.20000000       0.00000000      -0.20000000 </v>
   <v>       0.20000000       0.20000000       0.20000000 </v>
   <v>       0.20000000      -0.40000000      -0.20000000 </v>
   <v>       0.40000000       0.00000000       0.40000000 </v>
   <v>       0.40000000       0.20000000       0.40000000 </v>
   <v>      -0.40000000       0.20000000      -0.40000000 </v>
   <v>      -0.40000000       0.00000000      -0.40000000 </v>
   <v>       0.40000000      -0.20000000      -0.40000000 </v>
   <v>       0.00000000       0.20000000      -0.40000000 </v>
   <v>       0.00000000       0.00000000      -0.40000000 </v>
   <v>       0.40000000       0.00000000       0.00000000 </v>
   <v>       0.40000000       0.20000000       0.00000000 </v>
   <v>       0.20000000       0.20000000       0.40000000 </v>
   <v>       0.20000000       0.00000000       0.40000000 </v>
   <v>      -0.40000000       0.00000000      -0.20000000 </v>
   <v>      -0.40000000       0.20000000      -0.20000000 </v>
   <v>       0.40000000      -0.20000000      -0.20000000 </v>
   <v>       0.20000000      -0.20000000      -0.40000000 </v>
   <v>       0.20000000       0.20000000       0.00000000 </v>
   <v>       0.20000000       0.00000000       0.00000000 </v>
   <v>       0.00000000       0.20000000      -0.20000000 </v>
   <v>       0.20000000       0.40000000      -0.40000000 </v>
   <v>       0.40000000       0.40000000      -0.20000000 </v>
   <v>       0.20000000      -0.20000000      -0.20000000 </v>
   <v>       0.40000000       0.20000000      -0.40000000 </v>
   <v>       0.40000000       0.00000000      -0.40000000 </v>
   <v>       0.40000000       0.20000000      -0.20000000 </v>
   <v>       0.40000000       0.00000000      -0.20000000 </v>
   <v>       0.20000000       0.00000000      -0.40000000 </v>
   <v>       0.20000000       0.20000000      -0.40000000 </v>
   <v>       0.20000000       0.00000000      -0.20000000 </v>
   <v>       0.20000000       0.20000000      -0.20000000 </v>
  </varray>
 </structure>
 <varray name="primitive_index" >
  <v type="int" >        1 </v>
  <v type="int" >        8 </v>
  <v type="int" >       38 </v>
  <v type="int" >        7 </v>
  <v type="int" >       58 </v>
  <v type="int" >        2 </v>
  <v type="int" >       41 </v>
  <v type="int" >       67 </v>
  <v type="int" >       92 </v>
  <v type="int" >       26 </v>
  <v type="int" >       79 </v>
  <v type="int" >       94 </v>
  <v type="int" >       20 </v>
  <v type="int" >       21 </v>
  <v type="int" >       81 </v>
  <v type="int" >       95 </v>
  <v type="int" >       36 </v>
  <v type="int" >       75 </v>
  <v type="int" >       47 </v>
  <v type="int" >       52 </v>
  <v type="int" >       69 </v>
  <v type="int" >       12 </v>
  <v type="int" >       24 </v>
  <v type="int" >       25 </v>
  <v type="int" >       37 </v>
  <v type="int" >       63 </v>
  <v type="int" >       90 </v>
  <v type="int" >       39 </v>
  <v type="int" >       43 </v>
  <v type="int" >       44 </v>
  <v type="int" >       50 </v>
  <v type="int" >       55 </v>
  <v type="int" >       87 </v>
  <v type="int" >       34 </v>
  <v type="int" >       64 </v>
  <v type="int" >       70 </v>
  <v type="int" >       80 </v>
  <v type="int" >       35 </v>
  <v type="int" >       54 </v>
  <v type="int" >       59 </v>
  <v type="int" >        3 </v>
  <v type="int" >       31 </v>
  <v type="int" >       74 </v>
  <v type="int" >       76 </v>
  <v type="int" >       23 </v>
  <v type="int" >       42 </v>
  <v type="int" >       61 </v>
  <v type="int" >       77 </v>
  <v type="int" >       78 </v>
  <v type="int" >       98 </v>
  <v type="int" >        6 </v>
  <v type="int" >       82 </v>
  <v type="int" >       10 </v>
  <v type="int" >       22 </v>
  <v type="int" >       29 </v>
  <v type="int" >       96 </v>
  <v type="int" >       28 </v>
  <v type="int" >       33 </v>
  <v type="int" >       56 </v>
  <v type="int" >       97 </v>
  <v type="int" >        9 </v>
  <v type="int" >       14 </v>
  <v type="int" >       84 </v>
  <v type="int" >       86 </v>
  <v type="int" >       88 </v>
  <v type="int" >        4 </v>
  <v type="int" >       57 </v>
  <v type="int" >       66 </v>
  <v type="int" >       83 </v>
  <v type="int" >      100 </v>
  <v type="int" >       72 </v>
  <v type="int" >        5 </v>
  <v type="int" >       19 </v>
  <v type="int" >       48 </v>
  <v type="int" >       60 </v>
  <v type="int" >       93 </v>
  <v type="int" >       15 </v>
  <v type="int" >       17 </v>
  <v type="int" >       40 </v>
  <v type="int" >       85 </v>
  <v type="int" >       11 </v>
  <v type="int" >       16 </v>
  <v type="int" >       30 </v>
  <v type="int" >       71 </v>
  <v type="int" >       89 </v>
  <v type="int" >       99 </v>
  <v type="int" >       18 </v>
  <v type="int" >       27 </v>
  <v type="int" >       13 </v>
  <v type="int" >       46 </v>
  <v type="int" >       65 </v>
  <v type="int" >       73 </v>
  <v type="int" >       45 </v>
  <v type="int" >       91 </v>
  <v type="int" >       49 </v>
  <v type="int" >       53 </v>
  <v type="int" >       62 </v>
  <v type="int" >       68 </v>
  <v type="int" >       32 </v>
  <v type="int" >       51 </v>
 </varray>
 <kpoints>
  <generation param="Gamma">
   <v type="int" name="divisions">       1        1        1 </v>
   <v name="usershift">      0.00000000       0.00000000       0.00000000 </v>
   <v name="genvec1">      1.00000000       0.00000000       0.00000000 </v>
   <v name="genvec2">      0.00000000       1.00000000       0.00000000 </v>
   <v name="genvec3">      0.00000000       0.00000000       1.00000000 </v>
   <v name="shift">      0.00000000       0.00000000       0.00000000 </v>
  </generation>
  <varray name="kpointlist" >
   <v>       0.00000000       0.00000000       0.00000000 </v>
  </varray>
  <varray name="weights" >
   <v>       1.00000000 </v>
  </varray>
 </kpoints>
 <parameters>
  <separator name="general" >
   <i type="string" name="SYSTEM">unknown system</i>
   <i type="logical" name="LCOMPAT"> F  </i>
  </separator>
  <separator name="electronic" >
   <i type="string" name="PREC">normal</i>
   <i name="ENMAX">    245.34500000</i>
   <i name="ENAUG">    322.06900000</i>
   <i name="EDIFF">      0.00001000</i>
   <i type="int" name="IALGO">    68</i>
   <i type="int" name="IWAVPR">    10</i>
   <i type="int" name="NBANDS">   304</i>
   <i name="NELECT">    400.00000000</i>
   <i type="int" name="TURBO">     0</i>
   <i type="int" name="IRESTART">     0</i>
   <i type="int" name="NREBOOT">     0</i>
   <i type="int" name="NMIN">     0</i>
   <i name="EREF">      0.00000000</i>
   <separator name="electronic smearing" >
    <i type="int" name="ISMEAR">     0</i>
    <i name="SIGMA">      0.05000000</i>
    <i name="KSPACING">      0.50000000</i>
    <i type="logical" name="KGAMMA"> T  </i>
   </separator>
   <separator name="electronic projectors" >
    <i type="logical" name="LREAL"> T  </i>
    <v name="ROPT">     -0.00050000</v>
    <i type="int" name="LMAXPAW">  -100</i>
    <i type="int" name="LMAXMIX">     2</i>
    <i type="logical" name="NLSPLINE"> F  </i>
   </separator>
   <separator name="electronic startup" >
    <i type="int" name="ISTART">     0</i>
    <i type="int" name="ICHARG">     2</i>
    <i type="int" name="INIWAV">     1</i>
   </separator>
   <separator name="electronic spin" >
    <i type="int" name="ISPIN">     2</i>
    <i type="logical" name="LNONCOLLINEAR"> F  </i>
    <v name="MAGMOM">      1.00000000      1.00000000      1.00000000      1.00000000      1.00000000      1.00000000      1.00000000      1.00000000      1.00000000      1.00000000      1.00000000      1.00000000      1.00000000      1.00000000      1.00000000      1.00000000      1.00000000      1.00000000      1.00000000      1.00000000
      1.00000000      1.00000000      1.00000000      1.00000000      1.00000000      1.00000000      1.00000000      1.00000000      1.00000000      1.00000000      1.00000000      1.00000000      1.00000000      1.00000000      1.00000000      1.00000000      1.00000000      1.00000000      1.00000000      1.00000000
      1.00000000      1.00000000      1.00000000      1.00000000      1.00000000      1.00000000      1.00000000      1.00000000      1.00000000      1.00000000      1.00000000      1.00000000      1.00000000      1.00000000      1.00000000      1.00000000      1.00000000      1.00000000      1.00000000      1.00000000
      1.00000000      1.00000000      1.00000000      1.00000000      1.00000000      1.00000000      1.00000000      1.00000000      1.00000000      1.00000000      1.00000000      1.00000000      1.00000000      1.00000000      1.00000000      1.00000000      1.00000000      1.00000000      1.00000000      1.00000000
      1.00000000      1.00000000      1.00000000      1.00000000      1.00000000      1.00000000      1.00000000      1.00000000      1.00000000      1.00000000      1.00000000      1.00000000      1.00000000      1.00000000      1.00000000      1.00000000      1.00000000      1.00000000      1.00000000      1.00000000
</v>
    <i name="NUPDOWN">     -1.00000000</i>
    <i type="logical" name="LSORBIT"> F  </i>
    <v name="SAXIS">      0.00000000      0.00000000      1.00000000</v>
    <i type="logical" name="LSPIRAL"> F  </i>
    <v name="QSPIRAL">      0.00000000      0.00000000      0.00000000</v>
    <i type="logical" name="LZEROZ"> F  </i>
   </separator>
   <separator name="electronic exchange-correlation" >
    <i type="logical" name="LASPH"> F  </i>
    <i type="logical" name="LMETAGGA"> F  </i>
   </separator>
   <separator name="electronic convergence" >
    <i type="int" name="NELM">    60</i>
    <i type="int" name="NELMDL">     0</i>
    <i type="int" name="NELMIN">     4</i>
    <i name="ENINI">    245.34500000</i>
    <separator name="electronic convergence detail" >
     <i type="logical" name="LDIAG"> T  </i>
     <i type="logical" name="LSUBROT"> F  </i>
     <i name="WEIMIN">      0.00000000</i>
     <i name="EBREAK">      0.00000001</i>
     <i name="DEPER">      0.30000000</i>
     <i type="int" name="NRMM">     4</i>
     <i name="TIME">      0.40000000</i>
    </separator>
   </separator>
   <separator name="electronic mixer" >
    <i name="AMIX">      0.40000000</i>
    <i name="BMIX">      1.00000000</i>
    <i name="AMIN">      0.10000000</i>
    <i name="AMIX_MAG">      1.60000000</i>
    <i name="BMIX_MAG">      1.00000000</i>
    <separator name="electronic mixer details" >
     <i type="int" name="IMIX">     4</i>
     <i type="logical" name="MIXFIRST"> F  </i>
     <i type="int" name="MAXMIX">   -45</i>
     <i name="WC">    100.00000000</i>
     <i type="int" name="INIMIX">     1</i>
     <i type="int" name="MIXPRE">     1</i>
     <i type="int" name="MREMOVE">     5</i>
    </separator>
   </separator>
   <separator name="electronic dipolcorrection" >
    <i type="logical" name="LDIPOL"> F  </i>
    <i type="logical" name="LMONO"> F  </i>
    <i type="int" name="IDIPOL">     0</i>
    <i name="EPSILON">      1.00000000</i>
    <v name="DIPOL">   -100.00000000   -100.00000000   -100.00000000</v>
    <i name="EFIELD">      0.00000000</i>
   </separator>
  </separator>
  <separator name="grids" >
   <i type="int" name="NGX">    40</i>
   <i type="int" name="NGY">    40</i>
   <i type="int" name="NGZ">    40</i>
   <i type="int" name="NGXF">    80</i>
   <i type="int" name="NGYF">    80</i>
   <i type="int" name="NGZF">    80</i>
   <i type="logical" name="ADDGRID"> F  </i>
  </separator>
  <separator name="ionic" >
   <i type="int" name="NSW">     0</i>
   <i type="int" name="IBRION">    -1</i>
   <i type="int" name="MDALGO">     0</i>
   <i type="int" name="ISIF">     7</i>
   <i name="PSTRESS">      0.00000000</i>
   <i name="EDIFFG">      0.00010000</i>
   <i type="int" name="NFREE">     0</i>
   <i name="POTIM">      0.30000000</i>
   <i name="SMASS">     -3.00000000</i>
   <i name="SCALEE">      1.00000000</i>
  </separator>
  <separator name="ionic md" >
   <i name="TEBEG">   2000.00000000</i>
   <i name="TEEND">   2000.00000000</i>
   <i type="int" name="NBLOCK">     1</i>
   <i type="int" name="KBLOCK">     1</i>
   <i type="int" name="NPACO">   256</i>
   <i name="APACO">     16.00000000</i>
  </separator>
  <separator name="symmetry" >
   <i type="int" name="ISYM">     0</i>
   <i name="SYMPREC">      0.00001000</i>
  </separator>
  <separator name="dos" >
   <i type="int" name="LORBIT">     0</i>
   <v name="RWIGS">     -1.00000000</v>
   <i type="int" name="NEDOS">   301</i>
   <i name="EMIN">     10.00000000</i>
   <i name="EMAX">    -10.00000000</i>
   <i name="EFERMI">      0.00000000</i>
  </separator>
  <separator name="writing" >
   <i type="int" name="NWRITE">     2</i>
   <i type="logical" name="LWAVE"> F  </i>
   <i type="logical" name="LDOWNSAMPLE"> F  </i>
   <i type="logical" name="LCHARG"> F  </i>
   <i type="logical" name="LPARD"> F  </i>
   <i type="logical" name="LVTOT"> F  </i>
   <i type="logical" name="LVHAR"> F  </i>
   <i type="logical" name="LELF"> F  </i>
   <i type="logical" name="LOPTICS"> F  </i>
   <v name="STM">      0.00000000      0.00000000      0.00000000      0.00000000      0.00000000      0.00000000      0.00000000</v>
  </separator>
  <separator name="performance" >
   <i type="int" name="NPAR">    16</i>
   <i type="int" name="NSIM">     4</i>
   <i type="int" name="NBLK">    -1</i>
   <i type="logical" name="LPLANE"> T  </i>
   <i type="logical" name="LSCALAPACK"> T  </i>
   <i type="logical" name="LSCAAWARE"> F  </i>
   <i type="logical" name="LSCALU"> F  </i>
   <i type="logical" name="LASYNC"> F  </i>
   <i type="logical" name="LORBITALREAL"> F  </i>
  </separator>
  <separator name="miscellaneous" >
   <i type="int" name="IDIOT">     3</i>
   <i type="int" name="ISPECIAL">     0</i>
   <i type="logical" name="LMUSIC"> F  </i>
   <v name="POMASS">     28.08500000</v>
   <v name="DARWINR">      0.00000000</v>
   <v name="DARWINV">      1.00000000</v>
   <i type="logical" name="LCORR"> T  </i>
  </separator>
  <i type="logical" name="GGA_COMPAT"> T  </i>
  <i type="logical" name="LBERRY"> F  </i>
  <i type="int" name="ICORELEVEL">     0</i>
  <i type="logical" name="LDAU"> F  </i>
  <i type="int" name="I_CONSTRAINED_M">     0</i>
  <separator name="electronic exchange-correlation" >
   <i type="string" name="GGA">--</i>
   <i type="int" name="VOSKOWN">     0</i>
   <i type="logical" name="LHFCALC"> F  </i>
   <i type="string" name="PRECFOCK"></i>
   <i type="logical" name="LSYMGRAD"> F  </i>
   <i type="logical" name="LHFONE"> F  </i>
   <i type="logical" name="LRHFCALC"> F  </i>
   <i type="logical" name="LTHOMAS"> F  </i>
   <i type="logical" name="LMODELHF"> F  </i>
   <i name="ENCUT4O">     -1.00000000</i>
   <i type="int" name="EXXOEP">     0</i>
   <i type="int" name="FOURORBIT">     0</i>
   <i name="AEXX">      0.00000000</i>
   <i name="HFALPHA">      0.00000000</i>
   <i name="MCALPHA">      0.00000000</i>
   <i name="ALDAX">      1.00000000</i>
   <i name="AGGAX">      1.00000000</i>
   <i name="ALDAC">      1.00000000</i>
   <i name="AGGAC">      1.00000000</i>
   <i type="int" name="NKREDX">     1</i>
   <i type="int" name="NKREDY">     1</i>
   <i type="int" name="NKREDZ">     1</i>
   <i type="logical" name="SHIFTRED"> F  </i>
   <i type="logical" name="ODDONLY"> F  </i>
   <i type="logical" name="EVENONLY"> F  </i>
   <i type="int" name="LMAXFOCK">     0</i>
   <i type="int" name="NMAXFOCKAE">     0</i>
   <i type="logical" name="LFOCKAEDFT"> F  </i>
   <i name="HFSCREEN">      0.00000000</i>
   <i name="HFSCREENC">      0.00000000</i>
   <i type="int" name="NBANDSGWLOW">     0</i>
  </separator>
  <separator name="vdW DFT" >
   <i type="logical" name="LUSE_VDW"> F  </i>
   <i name="Zab_VDW">     -0.84910000</i>
   <i name="PARAM1">      0.12340000</i>
   <i name="PARAM2">      1.00000000</i>
   <i name="PARAM3">      0.00000000</i>
  </separator>
  <separator name="model GW" >
   <i type="int" name="MODEL_GW">     0</i>
   <i name="MODEL_EPS0">      6.38879919</i>
   <i name="MODEL_ALPHA">      1.00000000</i>
  </separator>
  <separator name="linear response parameters" >
   <i type="logical" name="LEPSILON"> F  </i>
   <i type="logical" name="LRPA"> F  </i>
   <i type="logical" name="LNABLA"> F  </i>
   <i type="logical" name="LVEL"> F  </i>
   <i type="int" name="KINTER">     0</i>
   <i name="CSHIFT">      0.10000000</i>
   <i name="OMEGAMAX">     -1.00000000</i>
   <i name="DEG_THRESHOLD">      0.00200000</i>
   <i name="RTIME">     -0.10000000</i>
   <i name="WPLASMAI">      0.00000000</i>
   <v name="DFIELD">      0.00000000      0.00000000      0.00000000</v>
   <v name="WPLASMA">      0.00000000      0.00000000      0.00000000      0.00000000      0.00000000      0.00000000      0.00000000      0.00000000      0.00000000</v>
  </separator>
  <separator name="orbital magnetization" >
   <i type="logical" name="NUCIND"> F  </i>
   <v name="MAGPOS">      0.00000000      0.00000000      0.00000000</v>
   <i type="logical" name="LNICSALL"> T  </i>
   <i type="logical" name="ORBITALMAG"> F  </i>
   <i type="logical" name="LMAGBLOCH"> F  </i>
   <i type="logical" name="LCHIMAG"> F  </i>
   <i type="logical" name="LGAUGE"> T  </i>
   <i type="int" name="MAGATOM">     0</i>
   <v name="MAGDIPOL">      0.00000000      0.00000000      0.00000000</v>
   <v name="AVECCONST">      0.00000000      0.00000000      0.00000000</v>
  </separator>
  <separator name="response functions" >
   <i type="logical" name="LADDER"> F  </i>
   <i type="logical" name="LRPAFORCE"> F  </i>
   <i type="logical" name="LFXC"> F  </i>
   <i type="logical" name="LHARTREE"> T  </i>
   <i type="int" name="IBSE">     0</i>
   <v type="int" name="KPOINT">    -1     0     0     0</v>
   <i type="logical" name="LTCTE"> F  </i>
   <i type="logical" name="LTETE"> F  </i>
   <i type="logical" name="LTRIPLET"> F  </i>
   <i type="logical" name="LFXCEPS"> F  </i>
   <i type="logical" name="LFXHEG"> F  </i>
   <i type="int" name="NATURALO">     2</i>
   <i type="logical" name="L2ORDER"> F  </i>
   <i type="logical" name="LMP2LT"> F  </i>
   <i type="logical" name="LUSEW"> F  </i>
   <i name="ENCUTGW">     -2.00000000</i>
   <i name="ENCUTGWSOFT">     -2.00000000</i>
   <i name="ENCUTLF">     -1.00000000</i>
   <i type="int" name="LMAXMP2">    -1</i>
   <i name="SCISSOR">      0.00000000</i>
   <i type="int" name="NOMEGA">     0</i>
   <i type="int" name="NOMEGAR">     0</i>
   <i type="int" name="NBANDSGW">    -1</i>
   <i type="int" name="NBANDSO">    -1</i>
   <i type="int" name="NBANDSV">    -1</i>
   <i type="int" name="NELM">    60</i>
   <i type="int" name="NELMHF">     1</i>
   <i type="int" name="DIM">     3</i>
   <i type="int" name="ANTIRES">     0</i>
   <i name="OMEGAMAX">    -30.00000000</i>
   <i name="OMEGAMIN">    -30.00000000</i>
   <i name="OMEGATL">   -200.00000000</i>
   <i type="int" name="OMEGAGRID">   140</i>
   <i name="CSHIFT">     -0.10000000</i>
   <i type="logical" name="SELFENERGY"> F  </i>
   <i type="logical" name="LSPECTRAL"> F  </i>
   <i type="logical" name="LSPECTRALGW"> F  </i>
   <i type="logical" name="LSINGLES"> F  </i>
   <i type="logical" name="LFERMIGW"> F  </i>
   <i type="logical" name="ODDONLYGW"> F  </i>
   <i type="logical" name="EVENONLYGW"> F  </i>
   <i type="int" name="NKREDLFX">     1</i>
   <i type="int" name="NKREDLFY">     1</i>
   <i type="int" name="NKREDLFZ">     1</i>
   <i type="int" name="MAXMEM">  2800</i>
   <i type="int" name="TELESCOPE">     0</i>
   <i type="int" name="TAUPAR">     1</i>
   <i type="int" name="OMEGAPAR">    -1</i>
   <i name="LAMBDA">      1.00000000</i>
  </separator>
  <separator name="External order field" >
   <i name="OFIELD_KAPPA">      0.00000000</i>
   <v name="OFIELD_K">      0.00000000      0.00000000      0.00000000</v>
   <i name="OFIELD_Q6_NEAR">      0.00000000</i>
   <i name="OFIELD_Q6_FAR">      0.00000000</i>
   <i name="OFIELD_A">      0.00000000</i>
  </separator>
 </parameters>
 <atominfo>
  <atoms>     100 </atoms>
  <types>       1 </types>
  <array name="atoms" >
   <dimension dim="1">ion</dimension>
   <field type="string">element</field>
   <field type="int">atomtype</field>
   <set>
    <rc><c>Si</c><c>   1</c></rc>
    <rc><c>Si</c><c>   1</c></rc>
    <rc><c>Si</c><c>   1</c></rc>
    <rc><c>Si</c><c>   1</c></rc>
    <rc><c>Si</c><c>   1</c></rc>
    <rc><c>Si</c><c>   1</c></rc>
    <rc><c>Si</c><c>   1</c></rc>
    <rc><c>Si</c><c>   1</c></rc>
    <rc><c>Si</c><c>   1</c></rc>
    <rc><c>Si</c><c>   1</c></rc>
    <rc><c>Si</c><c>   1</c></rc>
    <rc><c>Si</c><c>   1</c></rc>
    <rc><c>Si</c><c>   1</c></rc>
    <rc><c>Si</c><c>   1</c></rc>
    <rc><c>Si</c><c>   1</c></rc>
    <rc><c>Si</c><c>   1</c></rc>
    <rc><c>Si</c><c>   1</c></rc>
    <rc><c>Si</c><c>   1</c></rc>
    <rc><c>Si</c><c>   1</c></rc>
    <rc><c>Si</c><c>   1</c></rc>
    <rc><c>Si</c><c>   1</c></rc>
    <rc><c>Si</c><c>   1</c></rc>
    <rc><c>Si</c><c>   1</c></rc>
    <rc><c>Si</c><c>   1</c></rc>
    <rc><c>Si</c><c>   1</c></rc>
    <rc><c>Si</c><c>   1</c></rc>
    <rc><c>Si</c><c>   1</c></rc>
    <rc><c>Si</c><c>   1</c></rc>
    <rc><c>Si</c><c>   1</c></rc>
    <rc><c>Si</c><c>   1</c></rc>
    <rc><c>Si</c><c>   1</c></rc>
    <rc><c>Si</c><c>   1</c></rc>
    <rc><c>Si</c><c>   1</c></rc>
    <rc><c>Si</c><c>   1</c></rc>
    <rc><c>Si</c><c>   1</c></rc>
    <rc><c>Si</c><c>   1</c></rc>
    <rc><c>Si</c><c>   1</c></rc>
    <rc><c>Si</c><c>   1</c></rc>
    <rc><c>Si</c><c>   1</c></rc>
    <rc><c>Si</c><c>   1</c></rc>
    <rc><c>Si</c><c>   1</c></rc>
    <rc><c>Si</c><c>   1</c></rc>
    <rc><c>Si</c><c>   1</c></rc>
    <rc><c>Si</c><c>   1</c></rc>
    <rc><c>Si</c><c>   1</c></rc>
    <rc><c>Si</c><c>   1</c></rc>
    <rc><c>Si</c><c>   1</c></rc>
    <rc><c>Si</c><c>   1</c></rc>
    <rc><c>Si</c><c>   1</c></rc>
    <rc><c>Si</c><c>   1</c></rc>
    <rc><c>Si</c><c>   1</c></rc>
    <rc><c>Si</c><c>   1</c></rc>
    <rc><c>Si</c><c>   1</c></rc>
    <rc><c>Si</c><c>   1</c></rc>
    <rc><c>Si</c><c>   1</c></rc>
    <rc><c>Si</c><c>   1</c></rc>
    <rc><c>Si</c><c>   1</c></rc>
    <rc><c>Si</c><c>   1</c></rc>
    <rc><c>Si</c><c>   1</c></rc>
    <rc><c>Si</c><c>   1</c></rc>
    <rc><c>Si</c><c>   1</c></rc>
    <rc><c>Si</c><c>   1</c></rc>
    <rc><c>Si</c><c>   1</c></rc>
    <rc><c>Si</c><c>   1</c></rc>
    <rc><c>Si</c><c>   1</c></rc>
    <rc><c>Si</c><c>   1</c></rc>
    <rc><c>Si</c><c>   1</c></rc>
    <rc><c>Si</c><c>   1</c></rc>
    <rc><c>Si</c><c>   1</c></rc>
    <rc><c>Si</c><c>   1</c></rc>
    <rc><c>Si</c><c>   1</c></rc>
    <rc><c>Si</c><c>   1</c></rc>
    <rc><c>Si</c><c>   1</c></rc>
    <rc><c>Si</c><c>   1</c></rc>
    <rc><c>Si</c><c>   1</c></rc>
    <rc><c>Si</c><c>   1</c></rc>
    <rc><c>Si</c><c>   1</c></rc>
    <rc><c>Si</c><c>   1</c></rc>
    <rc><c>Si</c><c>   1</c></rc>
    <rc><c>Si</c><c>   1</c></rc>
    <rc><c>Si</c><c>   1</c></rc>
    <rc><c>Si</c><c>   1</c></rc>
    <rc><c>Si</c><c>   1</c></rc>
    <rc><c>Si</c><c>   1</c></rc>
    <rc><c>Si</c><c>   1</c></rc>
    <rc><c>Si</c><c>   1</c></rc>
    <rc><c>Si</c><c>   1</c></rc>
    <rc><c>Si</c><c>   1</c></rc>
    <rc><c>Si</c><c>   1</c></rc>
    <rc><c>Si</c><c>   1</c></rc>
    <rc><c>Si</c><c>   1</c></rc>
    <rc><c>Si</c><c>   1</c></rc>
    <rc><c>Si</c><c>   1</c></rc>
    <rc><c>Si</c><c>   1</c></rc>
    <rc><c>Si</c><c>   1</c></rc>
    <rc><c>Si</c><c>   1</c></rc>
    <rc><c>Si</c><c>   1</c></rc>
    <rc><c>Si</c><c>   1</c></rc>
    <rc><c>Si</c><c>   1</c></rc>
    <rc><c>Si</c><c>   1</c></rc>
   </set>
  </array>
  <array name="atomtypes" >
   <dimension dim="1">type</dimension>
   <field type="int">atomspertype</field>
   <field type="string">element</field>
   <field>mass</field>
   <field>valence</field>
   <field type="string">pseudopotential</field>
   <set>
    <rc><c> 100</c><c>Si</c><c>     28.08500000</c><c>      4.00000000</c><c>  PAW_PBE Si 05Jan2001                  </c></rc>
   </set>
  </array>
 </atominfo>
 <structure name="initialpos" >
  <crystal>
   <varray name="basis" >
    <v>      10.21149500       0.00000000       0.00000000 </v>
    <v>       0.00000000      10.21149500       0.00000000 </v>
    <v>       0.00000000       0.00000000      10.21149500 </v>
   </varray>
   <i name="volume">   1064.79986425 </i>
   <varray name="rec_basis" >
    <v>       0.09792885       0.00000000       0.00000000 </v>
    <v>       0.00000000       0.09792885       0.00000000 </v>
    <v>       0.00000000       0.00000000       0.09792885 </v>
   </varray>
  </crystal>
  <varray name="positions" >
   <v>       0.80000000       0.60000000       0.20000000 </v>
   <v>       0.80000000       0.80000000       0.00000000 </v>
   <v>       0.60000000       0.20000000       0.40000000 </v>
   <v>       0.80000000       0.20000000       0.80000000 </v>
   <v>       0.40000000       0.00000000       0.40000000 </v>
   <v>       0.60000000       0.80000000       0.80000000 </v>
   <v>       0.60000000       0.60000000       0.40000000 </v>
   <v>       0.60000000       0.60000000       0.20000000 </v>
   <v>       0.40000000       0.00000000       0.20000000 </v>
   <v>       0.00000000       0.00000000       0.00000000 </v>
   <v>       0.20000000       0.20000000       0.40000000 </v>
   <v>       0.80000000       0.20000000       0.40000000 </v>
   <v>       0.00000000       0.20000000       0.80000000 </v>
   <v>       0.80000000       0.20000000       0.60000000 </v>
   <v>       0.00000000       0.20000000       0.60000000 </v>
   <v>       0.20000000       0.00000000       0.40000000 </v>
   <v>       0.00000000       0.00000000       0.60000000 </v>
   <v>       0.20000000       0.20000000       0.00000000 </v>
   <v>       0.40000000       0.20000000       0.40000000 </v>
   <v>       0.60000000       0.80000000       0.40000000 </v>
   <v>       0.60000000       0.80000000       0.00000000 </v>
   <v>       0.00000000       0.40000000       0.60000000 </v>
   <v>       0.60000000       0.20000000       0.00000000 </v>
   <v>       0.40000000       0.60000000       0.40000000 </v>
   <v>       0.80000000       0.00000000       0.40000000 </v>
   <v>       0.00000000       0.40000000       0.20000000 </v>
   <v>       0.20000000       0.00000000       0.00000000 </v>
   <v>       0.20000000       0.40000000       0.40000000 </v>
   <v>       0.40000000       0.40000000       0.00000000 </v>
   <v>       0.60000000       0.00000000       0.80000000 </v>
   <v>       0.60000000       0.00000000       0.40000000 </v>
   <v>       0.20000000       0.00000000       0.80000000 </v>
   <v>       0.20000000       0.80000000       0.00000000 </v>
   <v>       0.20000000       0.60000000       0.40000000 </v>
   <v>       0.20000000       0.40000000       0.20000000 </v>
   <v>       0.00000000       0.80000000       0.00000000 </v>
   <v>       0.40000000       0.80000000       0.20000000 </v>
   <v>       0.80000000       0.60000000       0.40000000 </v>
   <v>       0.00000000       0.20000000       0.20000000 </v>
   <v>       0.40000000       0.00000000       0.00000000 </v>
   <v>       0.60000000       0.60000000       0.00000000 </v>
   <v>       0.60000000       0.40000000       0.60000000 </v>
   <v>       0.00000000       0.00000000       0.20000000 </v>
   <v>       0.00000000       0.60000000       0.60000000 </v>
   <v>       0.40000000       0.20000000       0.60000000 </v>
   <v>       0.20000000       0.40000000       0.60000000 </v>
   <v>       0.80000000       0.20000000       0.20000000 </v>
   <v>       0.60000000       0.20000000       0.60000000 </v>
   <v>       0.40000000       0.20000000       0.80000000 </v>
   <v>       0.80000000       0.00000000       0.00000000 </v>
   <v>       0.20000000       0.20000000       0.80000000 </v>
   <v>       0.20000000       0.60000000       0.20000000 </v>
   <v>       0.40000000       0.00000000       0.80000000 </v>
   <v>       0.00000000       0.60000000       0.80000000 </v>
   <v>       0.40000000       0.40000000       0.20000000 </v>
   <v>       0.00000000       0.80000000       0.80000000 </v>
   <v>       0.20000000       0.60000000       0.60000000 </v>
   <v>       0.80000000       0.80000000       0.40000000 </v>
   <v>       0.20000000       0.60000000       0.00000000 </v>
   <v>       0.60000000       0.00000000       0.60000000 </v>
   <v>       0.60000000       0.00000000       0.00000000 </v>
   <v>       0.20000000       0.00000000       0.60000000 </v>
   <v>       0.60000000       0.60000000       0.60000000 </v>
   <v>       0.20000000       0.80000000       0.20000000 </v>
   <v>       0.40000000       0.40000000       0.80000000 </v>
   <v>       0.20000000       0.00000000       0.20000000 </v>
   <v>       0.00000000       0.60000000       0.40000000 </v>
   <v>       0.20000000       0.20000000       0.60000000 </v>
   <v>       0.80000000       0.60000000       0.80000000 </v>
   <v>       0.80000000       0.80000000       0.80000000 </v>
   <v>       0.60000000       0.20000000       0.80000000 </v>
   <v>       0.20000000       0.60000000       0.80000000 </v>
   <v>       0.20000000       0.80000000       0.80000000 </v>
   <v>       0.60000000       0.80000000       0.60000000 </v>
   <v>       0.60000000       0.40000000       0.00000000 </v>
   <v>       0.40000000       0.80000000       0.40000000 </v>
   <v>       0.40000000       0.80000000       0.00000000 </v>
   <v>       0.40000000       0.40000000       0.40000000 </v>
   <v>       0.00000000       0.60000000       0.00000000 </v>
   <v>       0.60000000       0.60000000       0.80000000 </v>
   <v>       0.60000000       0.40000000       0.40000000 </v>
   <v>       0.20000000       0.80000000       0.40000000 </v>
   <v>       0.80000000       0.00000000       0.80000000 </v>
   <v>       0.40000000       0.60000000       0.60000000 </v>
   <v>       0.40000000       0.20000000       0.00000000 </v>
   <v>       0.40000000       0.20000000       0.20000000 </v>
   <v>       0.40000000       0.60000000       0.00000000 </v>
   <v>       0.80000000       0.00000000       0.60000000 </v>
   <v>       0.40000000       0.80000000       0.80000000 </v>
   <v>       0.60000000       0.00000000       0.20000000 </v>
   <v>       0.40000000       0.00000000       0.60000000 </v>
   <v>       0.60000000       0.40000000       0.20000000 </v>
   <v>       0.40000000       0.80000000       0.60000000 </v>
   <v>       0.80000000       0.40000000       0.00000000 </v>
   <v>       0.00000000       0.80000000       0.40000000 </v>
   <v>       0.00000000       0.20000000       0.00000000 </v>
   <v>       0.20000000       0.40000000       0.00000000 </v>
   <v>       0.00000000       0.80000000       0.60000000 </v>
   <v>       0.20000000       0.80000000       0.60000000 </v>
   <v>       0.20000000       0.20000000       0.20000000 </v>
  </varray>
 </structure>
 <calculation>
  <scstep>
   <time name="dav">    1.69    1.70</time>
   <time name="total">    1.77    1.92</time>
   <energy>
    <i name="alphaZ">    316.14514549 </i>
    <i name="ewald"> -12947.38204056 </i>
    <i name="hartreedc">  -1458.60698500 </i>
    <i name="XCdc">   -762.14367111 </i>
    <i name="pawpsdc">   8803.41707833 </i>
    <i name="pawaedc">  -7043.47671478 </i>
    <i name="eentropy">     -0.03947474 </i>
    <i name="bandstr">   3713.29415948 </i>
    <i name="atom">  10306.12861560 </i>
    <i name="e_fr_energy">    927.33611272 </i>
    <i name="e_wo_entrp">    927.37558746 </i>
    <i name="e_0_energy">    927.35585009 </i>
   </energy>
  </scstep>
  <scstep>
   <time name="dav">    1.95    1.96</time>
   <time name="total">    1.95    1.96</time>
   <energy>
    <i name="e_fr_energy">   -204.27562497 </i>
    <i name="e_wo_entrp">   -204.22651638 </i>
    <i name="e_0_energy">   -204.25107068 </i>
   </energy>
  </scstep>
  <scstep>
   <time name="dav">    2.00    2.02</time>
   <time name="total">    2.00    2.02</time>
   <energy>
    <i name="e_fr_energy">   -266.10711002 </i>
    <i name="e_wo_entrp">   -266.04582754 </i>
    <i name="e_0_energy">   -266.07646878 </i>
   </energy>
  </scstep>
  <scstep>
   <time name="dav">    2.02    2.03</time>
   <time name="total">    2.02    2.03</time>
   <energy>
    <i name="e_fr_energy">   -267.55960086 </i>
    <i name="e_wo_entrp">   -267.49872391 </i>
    <i name="e_0_energy">   -267.52916238 </i>
   </energy>
  </scstep>
  <scstep>
   <time name="dav">    2.02    2.03</time>
   <time name="total">    2.06    2.07</time>
   <energy>
    <i name="e_fr_energy">   -267.60128310 </i>
    <i name="e_wo_entrp">   -267.54038752 </i>
    <i name="e_0_energy">   -267.57083531 </i>
   </energy>
  </scstep>
  <scstep>
   <time name="diag">    0.29    0.29</time>
   <time name="diis">    0.72    0.72</time>
   <time name="orth">    0.09    0.09</time>
   <time name="total">    1.20    1.21</time>
   <energy>
    <i name="e_fr_energy">   -250.59539074 </i>
    <i name="e_wo_entrp">   -250.56276685 </i>
    <i name="e_0_energy">   -250.57907879 </i>
   </energy>
  </scstep>
  <scstep>
   <time name="diag">    0.29    0.29</time>
   <time name="diis">    0.67    0.68</time>
   <time name="orth">    0.09    0.09</time>
   <time name="total">    1.16    1.16</time>
   <energy>
    <i name="e_fr_energy">   -249.79860923 </i>
    <i name="e_wo_entrp">   -249.74335230 </i>
    <i name="e_0_energy">   -249.77098076 </i>
   </energy>
  </scstep>
  <scstep>
   <time name="diag">    0.29    0.29</time>
   <time name="diis">    0.71    0.72</time>
   <time name="orth">    0.09    0.09</time>
   <time name="total">    1.20    1.21</time>
   <energy>
    <i name="e_fr_energy">   -251.99230115 </i>
    <i name="e_wo_entrp">   -251.94289180 </i>
    <i name="e_0_energy">   -251.96759647 </i>
   </energy>
  </scstep>
  <scstep>
   <time name="diag">    0.29    0.29</time>
   <time name="diis">    0.75    0.75</time>
   <time name="orth">    0.09    0.09</time>
   <time name="total">    1.23    1.24</time>
   <energy>
    <i name="e_fr_energy">   -252.18138465 </i>
    <i name="e_wo_entrp">   -252.14200946 </i>
    <i name="e_0_energy">   -252.16169706 </i>
   </energy>
  </scstep>
  <scstep>
   <time name="diag">    0.29    0.29</time>
   <time name="diis">    0.74    0.75</time>
   <time name="orth">    0.09    0.09</time>
   <time name="total">    1.23    1.24</time>
   <energy>
    <i name="e_fr_energy">   -252.19658913 </i>
    <i name="e_wo_entrp">   -252.15723148 </i>
    <i name="e_0_energy">   -252.17691030 </i>
   </energy>
  </scstep>
  <scstep>
   <time name="diag">    0.29    0.29</time>
   <time name="diis">    0.76    0.76</time>
   <time name="orth">    0.09    0.09</time>
   <time name="total">    1.24    1.25</time>
   <energy>
    <i name="e_fr_energy">   -252.21736706 </i>
    <i name="e_wo_entrp">   -252.17698314 </i>
    <i name="e_0_energy">   -252.19717510 </i>
   </energy>
  </scstep>
  <scstep>
   <time name="diag">    0.29    0.29</time>
   <time name="diis">    0.78    0.79</time>
   <time name="orth">    0.09    0.09</time>
   <time name="total">    1.27    1.27</time>
   <energy>
    <i name="e_fr_energy">   -252.22668231 </i>
    <i name="e_wo_entrp">   -252.18368264 </i>
    <i name="e_0_energy">   -252.20518247 </i>
   </energy>
  </scstep>
  <scstep>
   <time name="diag">    0.29    0.29</time>
   <time name="diis">    0.76    0.76</time>
   <time name="orth">    0.09    0.09</time>
   <time name="total">    1.25    1.25</time>
   <energy>
    <i name="e_fr_energy">   -252.22917689 </i>
    <i name="e_wo_entrp">   -252.18534922 </i>
    <i name="e_0_energy">   -252.20726306 </i>
   </energy>
  </scstep>
  <scstep>
   <time name="diag">    0.29    0.29</time>
   <time name="diis">    0.76    0.76</time>
   <time name="orth">    0.09    0.09</time>
   <time name="total">    1.24    1.25</time>
   <energy>
    <i name="e_fr_energy">   -252.22981208 </i>
    <i name="e_wo_entrp">   -252.18585902 </i>
    <i name="e_0_energy">   -252.20783555 </i>
   </energy>
  </scstep>
  <scstep>
   <time name="diag">    0.29    0.29</time>
   <time name="diis">    0.75    0.76</time>
   <time name="orth">    0.09    0.09</time>
   <time name="total">    1.24    1.25</time>
   <energy>
    <i name="e_fr_energy">   -252.23001603 </i>
    <i name="e_wo_entrp">   -252.18594930 </i>
    <i name="e_0_energy">   -252.20798267 </i>
   </energy>
  </scstep>
  <scstep>
   <time name="diag">    0.29    0.29</time>
   <time name="diis">    0.75    0.75</time>
   <time name="orth">    0.09    0.09</time>
   <time name="total">    1.23    1.24</time>
   <energy>
    <i name="e_fr_energy">   -252.23008907 </i>
    <i name="e_wo_entrp">   -252.18604255 </i>
    <i name="e_0_energy">   -252.20806581 </i>
   </energy>
  </scstep>
  <scstep>
   <time name="diag">    0.29    0.29</time>
   <time name="diis">    0.63    0.64</time>
   <time name="orth">    0.09    0.09</time>
   <time name="total">    1.12    1.12</time>
   <energy>
    <i name="e_fr_energy">   -252.23010375 </i>
    <i name="e_wo_entrp">   -252.18604499 </i>
    <i name="e_0_energy">   -252.20807437 </i>
   </energy>
  </scstep>
  <scstep>
   <time name="diag">    0.29    0.29</time>
   <time name="diis">    0.45    0.45</time>
   <time name="orth">    0.09    0.09</time>
   <time name="total">    0.89    0.90</time>
   <energy>
    <i name="alphaZ">    316.14514549 </i>
    <i name="ewald"> -12947.38204056 </i>
    <i name="hartreedc">  -1665.73841191 </i>
    <i name="XCdc">   -742.19191843 </i>
    <i name="pawpsdc"> 153581.89367106 </i>
    <i name="pawaedc">-151859.87227717 </i>
    <i name="eentropy">     -0.04404990 </i>
    <i name="bandstr">   2758.83116182 </i>
    <i name="atom">  10306.12861560 </i>
    <i name="e_fr_energy">   -252.23010400 </i>
    <i name="e_wo_entrp">   -252.18605410 </i>
    <i name="e_0_energy">   -252.20807905 </i>
   </energy>
  </scstep>
  <structure>
   <crystal>
    <varray name="basis" >
     <v>      10.21149500       0.00000000       0.00000000 </v>
     <v>       0.00000000      10.21149500       0.00000000 </v>
     <v>       0.00000000       0.00000000      10.21149500 </v>
    </varray>
    <i name="volume">   1064.79986425 </i>
    <varray name="rec_basis" >
     <v>       0.09792885       0.00000000       0.00000000 </v>
     <v>       0.00000000       0.09792885       0.00000000 </v>
     <v>       0.00000000       0.00000000       0.09792885 </v>
    </varray>
   </crystal>
   <varray name="positions" >
    <v>       0.80000000       0.60000000       0.20000000 </v>
    <v>       0.80000000       0.80000000       0.00000000 </v>
    <v>       0.60000000       0.20000000       0.40000000 </v>
    <v>       0.80000000       0.20000000       0.80000000 </v>
    <v>       0.40000000       0.00000000       0.40000000 </v>
    <v>       0.60000000       0.80000000       0.80000000 </v>
    <v>       0.60000000       0.60000000       0.40000000 </v>
    <v>       0.60000000       0.60000000       0.20000000 </v>
    <v>       0.40000000       0.00000000       0.20000000 </v>
    <v>       0.00000000       0.00000000       0.00000000 </v>
    <v>       0.20000000       0.20000000       0.40000000 </v>
    <v>       0.80000000       0.20000000       0.40000000 </v>
    <v>       0.00000000       0.20000000       0.80000000 </v>
    <v>       0.80000000       0.20000000       0.60000000 </v>
    <v>       0.00000000       0.20000000       0.60000000 </v>
    <v>       0.20000000       0.00000000       0.40000000 </v>
    <v>       0.00000000       0.00000000       0.60000000 </v>
    <v>       0.20000000       0.20000000       0.00000000 </v>
    <v>       0.40000000       0.20000000       0.40000000 </v>
    <v>       0.60000000       0.80000000       0.40000000 </v>
    <v>       0.60000000       0.80000000       0.00000000 </v>
    <v>       0.00000000       0.40000000       0.60000000 </v>
    <v>       0.60000000       0.20000000       0.00000000 </v>
    <v>       0.40000000       0.60000000       0.40000000 </v>
    <v>       0.80000000       0.00000000       0.40000000 </v>
    <v>       0.00000000       0.40000000       0.20000000 </v>
    <v>       0.20000000       0.00000000       0.00000000 </v>
    <v>       0.20000000       0.40000000       0.40000000 </v>
    <v>       0.40000000       0.40000000       0.00000000 </v>
    <v>       0.60000000       0.00000000       0.80000000 </v>
    <v>       0.60000000       0.00000000       0.40000000 </v>
    <v>       0.20000000       0.00000000       0.80000000 </v>
    <v>       0.20000000       0.80000000       0.00000000 </v>
    <v>       0.20000000       0.60000000       0.40000000 </v>
    <v>       0.20000000       0.40000000       0.20000000 </v>
    <v>       0.00000000       0.80000000       0.00000000 </v>
    <v>       0.40000000       0.80000000       0.20000000 </v>
    <v>       0.80000000       0.60000000       0.40000000 </v>
    <v>       0.00000000       0.20000000       0.20000000 </v>
    <v>       0.40000000       0.00000000       0.00000000 </v>
    <v>       0.60000000       0.60000000       0.00000000 </v>
    <v>       0.60000000       0.40000000       0.60000000 </v>
    <v>       0.00000000       0.00000000       0.20000000 </v>
    <v>       0.00000000       0.60000000       0.60000000 </v>
    <v>       0.40000000       0.20000000       0.60000000 </v>
    <v>       0.20000000       0.40000000       0.60000000 </v>
    <v>       0.80000000       0.20000000       0.20000000 </v>
    <v>       0.60000000       0.20000000       0.60000000 </v>
    <v>       0.40000000       0.20000000       0.80000000 </v>
    <v>       0.80000000       0.00000000       0.00000000 </v>
    <v>       0.20000000       0.20000000       0.80000000 </v>
    <v>       0.20000000       0.60000000       0.20000000 </v>
    <v>       0.40000000       0.00000000       0.80000000 </v>
    <v>       0.00000000       0.60000000       0.80000000 </v>
    <v>       0.40000000       0.40000000       0.20000000 </v>
    <v>       0.00000000       0.80000000       0.80000000 </v>
    <v>       0.20000000       0.60000000       0.60000000 </v>
    <v>       0.80000000       0.80000000       0.40000000 </v>
    <v>       0.20000000       0.60000000       0.00000000 </v>
    <v>       0.60000000       0.00000000       0.60000000 </v>
    <v>       0.60000000       0.00000000       0.00000000 </v>
    <v>       0.20000000       0.00000000       0.60000000 </v>
    <v>       0.60000000       0.60000000       0.60000000 </v>
    <v>       0.20000000       0.80000000       0.20000000 </v>
    <v>       0.40000000       0.40000000       0.80000000 </v>
    <v>       0.20000000       0.00000000       0.20000000 </v>
    <v>       0.00000000       0.60000000       0.40000000 </v>
    <v>       0.20000000       0.20000000       0.60000000 </v>
    <v>       0.80000000       0.60000000       0.80000000 </v>
    <v>       0.80000000       0.80000000       0.80000000 </v>
    <v>       0.60000000       0.20000000       0.80000000 </v>
    <v>       0.20000000       0.60000000       0.80000000 </v>
    <v>       0.20000000       0.80000000       0.80000000 </v>
    <v>       0.60000000       0.80000000       0.60000000 </v>
    <v>       0.60000000       0.40000000       0.00000000 </v>
    <v>       0.40000000       0.80000000       0.40000000 </v>
    <v>       0.40000000       0.80000000       0.00000000 </v>
    <v>       0.40000000       0.40000000       0.40000000 </v>
    <v>       0.00000000       0.60000000       0.00000000 </v>
    <v>       0.60000000       0.60000000       0.80000000 </v>
    <v>       0.60000000       0.40000000       0.40000000 </v>
    <v>       0.20000000       0.80000000       0.40000000 </v>
    <v>       0.80000000       0.00000000       0.80000000 </v>
    <v>       0.40000000       0.60000000       0.60000000 </v>
    <v>       0.40000000       0.20000000       0.00000000 </v>
    <v>       0.40000000       0.20000000       0.20000000 </v>
    <v>       0.40000000       0.60000000       0.00000000 </v>
    <v>       0.80000000       0.00000000       0.60000000 </v>
    <v>       0.40000000       0.80000000       0.80000000 </v>
    <v>       0.60000000       0.00000000       0.20000000 </v>
    <v>       0.40000000       0.00000000       0.60000000 </v>
    <v>       0.60000000       0.40000000       0.20000000 </v>
    <v>       0.40000000       0.80000000       0.60000000 </v>
    <v>       0.80000000       0.40000000       0.00000000 </v>
    <v>       0.00000000       0.80000000       0.40000000 </v>
    <v>       0.00000000       0.20000000       0.00000000 </v>
    <v>       0.20000000       0.40000000       0.00000000 </v>
    <v>       0.00000000       0.80000000       0.60000000 </v>
    <v>       0.20000000       0.80000000       0.60000000 </v>
    <v>       0.20000000       0.20000000       0.20000000 </v>
   </varray>
  </structure>
  <varray name="forces" >
   <v>       5.61902449      -0.47216149      -5.55428272 </v>
   <v>      -0.09348176      -5.43335493       5.40769797 </v>
   <v>       1.00985475      -0.01051200      -5.96882940 </v>
   <v>       0.01123428       5.43386704       5.67512758 </v>
   <v>      -0.35551851       0.14448926      -0.16352740 </v>
   <v>       0.18221318      -0.12326392      -0.73552682 </v>
   <v>       0.39125102      -0.05240991      -0.49145049 </v>
   <v>      -5.62632923       4.85138025      -0.49041697 </v>
   <v>       0.96640113       0.30999095       0.07291817 </v>
   <v>      -1.10547144       0.66026518      -4.91756972 </v>
   <v>      -6.36579413      -0.12783729      -0.42617931 </v>
   <v>       4.95908186       4.93574951      -0.42770950 </v>
   <v>      -0.57206675       0.68301076       0.47718951 </v>
   <v>       0.26105602       5.81707010      -0.59106174 </v>
   <v>      -0.36903044       0.91377348      -5.45534090 </v>
   <v>      -5.87918044       0.35852082      -0.03288748 </v>
   <v>      -0.35837042      -0.01991865       0.07135537 </v>
   <v>      -0.26341906       1.06311882      -0.11635270 </v>
   <v>       0.32872190       0.82602823      -0.61062612 </v>
   <v>       0.62361141      -0.03463742      -5.41360871 </v>
   <v>       0.88915377      -0.60987137       5.82881244 </v>
   <v>      -4.88545624      -0.19831698       0.30415115 </v>
   <v>       6.27796572       0.46625220       5.60108672 </v>
   <v>      -0.04837050      -0.60721883      -5.39732799 </v>
   <v>       5.16872749      -0.09306908      -5.60567063 </v>
   <v>      -5.33664146       5.93854976      -0.20651477 </v>
   <v>      -0.50876659       0.36610520      -0.63745763 </v>
   <v>      -5.67552699       0.02328716       0.34983705 </v>
   <v>      -0.11381257       0.68288590      -0.53710711 </v>
   <v>       0.10974854       0.15235217      -0.06993241 </v>
   <v>       1.03483819      -0.03077882      -1.77544775 </v>
   <v>      -5.92344734       0.14732498      -0.02133441 </v>
   <v>      -1.09949730      -0.45520820       0.44135296 </v>
   <v>      -0.26602764      -0.79848494      -1.22685053 </v>
   <v>      -0.42816232       1.13599653      -0.37779934 </v>
   <v>      -0.41425942      -0.94269024       5.11320333 </v>
   <v>       6.04823031      -6.21450949      -0.25416911 </v>
   <v>       0.50658015      -5.27176814       4.63934250 </v>
   <v>      -0.74414740       0.34385600       5.20568919 </v>
   <v>       0.11709915       0.19331103       0.15014276 </v>
   <v>       4.89016030      -0.08124708      -0.03887869 </v>
   <v>       0.28006455       0.16146427       5.14381403 </v>
   <v>      -5.81497260      -4.95729444       5.64537692 </v>
   <v>      -6.16367410      -0.69134631      -0.00776160 </v>
   <v>      -0.06755817       6.13009936      -0.01729023 </v>
   <v>       4.49569813       0.26134803       5.55223185 </v>
   <v>      -5.51463203       0.13820382      -5.04516661 </v>
   <v>       0.01254717       1.39675732       0.31309626 </v>
   <v>       0.11256310       1.39102123      -0.35674387 </v>
   <v>       0.11219108       5.93023916       5.43340966 </v>
   <v>      -0.49826399       5.14130842      -0.05518785 </v>
   <v>      -0.54634545      -0.30850440       0.05495378 </v>
   <v>      -0.39596177      -0.47652082      -0.23101898 </v>
   <v>      -0.92976399      -5.64976145       0.29585329 </v>
   <v>       0.27996730       5.38328062       0.84266145 </v>
   <v>      -0.00157395       5.38771685      -0.14560694 </v>
   <v>       0.83550887      -1.07131363       0.70355364 </v>
   <v>       0.10123525       0.23003422      -0.47547045 </v>
   <v>      -0.08859687      -1.46639149       0.45886479 </v>
   <v>       0.68631452      -0.52727129       0.29867856 </v>
   <v>       1.42798096       0.59054990       1.78123166 </v>
   <v>      -1.07335164      -0.04000178       0.41402585 </v>
   <v>       5.59911022      -0.70693431       0.91250622 </v>
   <v>      -5.89372575      -1.00625048       0.09801828 </v>
   <v>       0.37208464       5.80801407      -5.65895515 </v>
   <v>      -1.30456344       0.00728192       0.40253470 </v>
   <v>      -0.41046141      -5.53188853      -6.02273795 </v>
   <v>      -0.00680016       1.15617831       0.22724284 </v>
   <v>      -0.20588353      -4.98135159      -0.15081071 </v>
   <v>       0.26109364      -0.60055361      -5.64607428 </v>
   <v>       0.76894670       6.09066800       0.77028848 </v>
   <v>       5.44096327      -5.86089426       0.19081155 </v>
   <v>      -0.23174820       0.00407627      -0.32260085 </v>
   <v>       5.92550661      -0.55622912       0.17188039 </v>
   <v>       0.64570187      -0.30737554      -4.98084636 </v>
   <v>       0.62179187      -0.68155136      -0.69754125 </v>
   <v>       0.72800008      -1.04141564       0.11258478 </v>
   <v>       0.21514199       0.56013269       5.05508958 </v>
   <v>      -5.38814475      -6.21829970       6.32344019 </v>
   <v>      -4.38349965      -6.11501561       0.22281076 </v>
   <v>       5.74718565      -0.37196927      -0.18152347 </v>
   <v>      -1.15676580       0.37454278      -0.40977820 </v>
   <v>       5.42770248       0.13634453      -0.00458432 </v>
   <v>       0.41892365      -5.80766840       5.73103375 </v>
   <v>       0.57214804       0.78380196       0.92786744 </v>
   <v>       6.05224962       0.50026257       0.08059195 </v>
   <v>       0.14145042      -0.22847406       0.26878919 </v>
   <v>       0.54085110      -5.56338222      -0.18860681 </v>
   <v>      -0.03482900      -6.21057682      -0.50760704 </v>
   <v>       6.05050934       0.42704166       0.09448628 </v>
   <v>      -0.01829235       0.03241616       0.25203443 </v>
   <v>       5.20507204      -5.05940334       0.05657035 </v>
   <v>       0.22177199      -1.05121682       0.70844428 </v>
   <v>       5.96061088      -0.31314256      -0.00395045 </v>
   <v>      -0.43317387       5.08530336      -5.57121529 </v>
   <v>      -5.65353913       5.96167505      -0.39485901 </v>
   <v>      -5.99567216       0.21243785      -5.08422622 </v>
   <v>      -5.62250567       0.16120388       0.03932036 </v>
   <v>      -0.17737782      -0.17949004       0.23765476 </v>
   <v>      -0.21138551       0.26815807       0.54436524 </v>
  </varray>
  <varray name="stress" >
   <v>    1455.63654625      -3.94212036       8.31975801 </v>
   <v>      -3.94212017    1442.12108254      22.07985795 </v>
   <v>       8.31975796      22.07985810    1437.72671491 </v>
  </varray>
  <energy>
   <i name="e_fr_energy">   -252.23010400 </i>
   <i name="e_wo_entrp">   -252.20807905 </i>
   <i name="e_0_energy">     -0.04404990 </i>
  </energy>
  <time name="totalsc">   26.95   27.52</time>
  <eigenvalues>
   <array>
    <dimension dim="1">band</dimension>
    <dimension dim="2">kpoint</dimension>
    <dimension dim="3">spin</dimension>
    <field>eigene</field>
    <field>occ</field>
    <set>
     <set comment="spin 1">
      <set comment="kpoint 1">
       <r>   -4.8504    1.0000 </r>
       <r>   -3.7003    1.0000 </r>
       <r>   -3.5507    1.0000 </r>
       <r>   -3.4541    1.0000 </r>
       <r>   -2.9936    1.0000 </r>
       <r>   -2.8511    1.0000 </r>
       <r>   -2.5579    1.0000 </r>
       <r>   -2.2278    1.0000 </r>
       <r>   -2.1177    1.0000 </r>
       <r>   -2.0119    1.0000 </r>
       <r>   -1.7755    1.0000 </r>
       <r>   -1.6332    1.0000 </r>
       <r>   -1.6016    1.0000 </r>
       <r>   -1.3723    1.0000 </r>
       <r>   -1.1366    1.0000 </r>
       <r>   -0.9257    1.0000 </r>
       <r>   -0.7933    1.0000 </r>
       <r>   -0.6813    1.0000 </r>
       <r>   -0.4115    1.0000 </r>
       <r>   -0.2201    1.0000 </r>
       <r>    0.0206    1.0000 </r>
       <r>    0.2632    1.0000 </r>
       <r>    0.4186    1.0000 </r>
       <r>    0.5905    1.0000 </r>
       <r>    0.6377    1.0000 </r>
       <r>    0.6836    1.0000 </r>
       <r>    0.8467    1.0000 </r>
       <r>    0.9286    1.0000 </r>
       <r>    1.0948    1.0000 </r>
       <r>    1.1606    1.0000 </r>
       <r>    1.3693    1.0000 </r>
       <r>    1.6370    1.0000 </r>
       <r>    1.6905    1.0000 </r>
       <r>    1.8567    1.0000 </r>
       <r>    1.9209    1.0000 </r>
       <r>    2.0084    1.0000 </r>
       <r>    2.0891    1.0000 </r>
       <r>    2.1402    1.0000 </r>
       <r>    2.1669    1.0000 </r>
       <r>    2.2622    1.0000 </r>
       <r>    2.3242    1.0000 </r>
       <r>    2.4276    1.0000 </r>
       <r>    2.5748    1.0000 </r>
       <r>    2.6623    1.0000 </r>
       <r>    2.7123    1.0000 </r>
       <r>    2.8302    1.0000 </r>
       <r>    2.9295    1.0000 </r>
       <r>    2.9425    1.0000 </r>
       <r>    3.0048    1.0000 </r>
       <r>    3.1732    1.0000 </r>
       <r>    3.2234    1.0000 </r>
       <r>    3.3203    1.0000 </r>
       <r>    3.3504    1.0000 </r>
       <r>    3.5327    1.0000 </r>
       <r>    3.6328    1.0000 </r>
       <r>    3.6662    1.0000 </r>
       <r>    3.7688    1.0000 </r>
       <r>    3.8748    1.0000 </r>
       <r>    3.9290    1.0000 </r>
       <r>    3.9901    1.0000 </r>
       <r>    4.0602    1.0000 </r>
       <r>    4.0790    1.0000 </r>
       <r>    4.2622    1.0000 </r>
       <r>    4.4278    1.0000 </r>
       <r>    4.5951    1.0000 </r>
       <r>    4.7077    1.0000 </r>
       <r>    4.8601    1.0000 </r>
       <r>    4.9620    1.0000 </r>
       <r>    5.0770    1.0000 </r>
       <r>    5.1194    1.0000 </r>
       <r>    5.2347    1.0000 </r>
       <r>    5.3734    1.0000 </r>
       <r>    5.5174    1.0000 </r>
       <r>    5.5282    1.0000 </r>
       <r>    5.6049    1.0000 </r>
       <r>    5.7015    1.0000 </r>
       <r>    5.7982    1.0000 </r>
       <r>    5.9323    1.0000 </r>
       <r>    6.0649    1.0000 </r>
       <r>    6.2448    1.0000 </r>
       <r>    6.3120    1.0000 </r>
       <r>    6.4240    1.0000 </r>
       <r>    6.5076    1.0000 </r>
       <r>    6.6278    1.0000 </r>
       <r>    6.6596    1.0000 </r>
       <r>    6.7487    1.0000 </r>
       <r>    6.8400    1.0000 </r>
       <r>    6.9150    1.0000 </r>
       <r>    7.0027    1.0000 </r>
       <r>    7.0614    1.0000 </r>
       <r>    7.1846    1.0000 </r>
       <r>    7.2128    1.0000 </r>
       <r>    7.2737    1.0000 </r>
       <r>    7.3682    1.0000 </r>
       <r>    7.4563    1.0000 </r>
       <r>    7.5254    1.0000 </r>
       <r>    7.5704    1.0000 </r>
       <r>    7.6085    1.0000 </r>
       <r>    7.6996    1.0000 </r>
       <r>    7.7109    1.0000 </r>
       <r>    7.8230    1.0000 </r>
       <r>    7.8395    1.0000 </r>
       <r>    7.8611    1.0000 </r>
       <r>    7.9607    1.0000 </r>
       <r>    8.0026    1.0000 </r>
       <r>    8.1111    1.0000 </r>
       <r>    8.2520    1.0000 </r>
       <r>    8.2599    1.0000 </r>
       <r>    8.3227    1.0000 </r>
       <r>    8.4023    1.0000 </r>
       <r>    8.4685    1.0000 </r>
       <r>    8.5377    1.0000 </r>
       <r>    8.5740    1.0000 </r>
       <r>    8.5997    1.0000 </r>
       <r>    8.6697    1.0000 </r>
       <r>    8.6896    1.0000 </r>
       <r>    8.7682    1.0000 </r>
       <r>    8.7885    1.0000 </r>
       <r>    8.8062    1.0000 </r>
       <r>    8.9028    1.0000 </r>
       <r>    8.9550    1.0000 </r>
       <r>    9.0428    1.0000 </r>
       <r>    9.0756    1.0000 </r>
       <r>    9.0876    1.0000 </r>
       <r>    9.1368    1.0000 </r>
       <r>    9.1820    1.0000 </r>
       <r>    9.2573    1.0000 </r>
       <r>    9.3204    1.0000 </r>
       <r>    9.3868    1.0000 </r>
       <r>    9.5254    1.0000 </r>
       <r>    9.5695    1.0000 </r>
       <r>    9.6675    1.0000 </r>
       <r>    9.7204    1.0000 </r>
       <r>    9.7728    1.0000 </r>
       <r>    9.8056    1.0000 </r>
       <r>    9.8625    1.0000 </r>
       <r>    9.8838    1.0000 </r>
       <r>    9.9545    1.0000 </r>
       <r>   10.0478    1.0000 </r>
       <r>   10.1285    1.0000 </r>
       <r>   10.1852    1.0000 </r>
       <r>   10.2504    1.0000 </r>
       <r>   10.3071    1.0000 </r>
       <r>   10.4344    1.0000 </r>
       <r>   10.4729    1.0000 </r>
       <r>   10.5773    1.0000 </r>
       <r>   10.6217    1.0000 </r>
       <r>   10.6445    1.0000 </r>
       <r>   10.7172    1.0000 </r>
       <r>   10.7860    1.0000 </r>
       <r>   10.8219    1.0000 </r>
       <r>   10.9219    1.0000 </r>
       <r>   10.9693    1.0000 </r>
       <r>   11.0406    1.0000 </r>
       <r>   11.0934    1.0000 </r>
       <r>   11.2036    1.0000 </r>
       <r>   11.3128    1.0000 </r>
       <r>   11.3281    1.0000 </r>
       <r>   11.4172    1.0000 </r>
       <r>   11.4707    1.0000 </r>
       <r>   11.5186    1.0000 </r>
       <r>   11.5988    1.0000 </r>
       <r>   11.6627    1.0000 </r>
       <r>   11.6899    1.0000 </r>
       <r>   11.7644    1.0000 </r>
       <r>   11.8322    1.0000 </r>
       <r>   11.8822    1.0000 </r>
       <r>   11.9488    1.0000 </r>
       <r>   11.9836    1.0000 </r>
       <r>   12.0854    1.0000 </r>
       <r>   12.1747    1.0000 </r>
       <r>   12.1848    1.0000 </r>
       <r>   12.2602    1.0000 </r>
       <r>   12.2944    1.0000 </r>
       <r>   12.3589    1.0000 </r>
       <r>   12.3855    1.0000 </r>
       <r>   12.4650    1.0000 </r>
       <r>   12.4999    1.0000 </r>
       <r>   12.6295    1.0000 </r>
       <r>   12.6653    1.0000 </r>
       <r>   12.7028    1.0000 </r>
       <r>   12.7483    1.0000 </r>
       <r>   12.8965    1.0000 </r>
       <r>   12.9169    1.0000 </r>
       <r>   12.9934    1.0000 </r>
       <r>   13.0399    1.0000 </r>
       <r>   13.1666    1.0000 </r>
       <r>   13.2277    1.0000 </r>
       <r>   13.2714    1.0000 </r>
       <r>   13.4844    1.0000 </r>
       <r>   13.4912    1.0000 </r>
       <r>   13.6228    1.0000 </r>
       <r>   13.7739    1.0000 </r>
       <r>   13.7910    1.0000 </r>
       <r>   13.8993    1.0000 </r>
       <r>   13.9765    1.0000 </r>
       <r>   13.9976    1.0000 </r>
       <r>   14.0386    1.0000 </r>
       <r>   14.0610    0.9998 </r>
       <r>   14.1547    0.7994 </r>
       <r>   14.2207    0.1523 </r>
       <r>   14.2420    0.0516 </r>
       <r>   14.3088    0.0002 </r>
       <r>   14.3990    0.0000 </r>
       <r>   14.4776    0.0000 </r>
       <r>   14.5563    0.0000 </r>
       <r>   14.5831    0.0000 </r>
       <r>   14.6074    0.0000 </r>
       <r>   14.6277    0.0000 </r>
       <r>   14.6928    0.0000 </r>
       <r>   14.8013    0.0000 </r>
       <r>   14.8230    0.0000 </r>
       <r>   14.8730    0.0000 </r>
       <r>   14.9415    0.0000 </r>
       <r>   15.0331    0.0000 </r>
       <r>   15.0737    0.0000 </r>
       <r>   15.1263    0.0000 </r>
       <r>   15.1781    0.0000 </r>
       <r>   15.1980    0.0000 </r>
       <r>   15.2453    0.0000 </r>
       <r>   15.2755    0.0000 </r>
       <r>   15.3517    0.0000 </r>
       <r>   15.3816    0.0000 </r>
       <r>   15.4625    0.0000 </r>
       <r>   15.5063    0.0000 </r>
       <r>   15.5311    0.0000 </r>
       <r>   15.6090    0.0000 </r>
       <r>   15.6631    0.0000 </r>
       <r>   15.6917    0.0000 </r>
       <r>   15.7293    0.0000 </r>
       <r>   15.7632    0.0000 </r>
       <r>   15.8019    0.0000 </r>
       <r>   15.8147    0.0000 </r>
       <r>   15.8951    0.0000 </r>
       <r>   16.0036    0.0000 </r>
       <r>   16.0557    0.0000 </r>
       <r>   16.0750    0.0000 </r>
       <r>   16.1490    0.0000 </r>
       <r>   16.2280    0.0000 </r>
       <r>   16.2393    0.0000 </r>
       <r>   16.3026    0.0000 </r>
       <r>   16.3316    0.0000 </r>
       <r>   16.3672    0.0000 </r>
       <r>   16.4422    0.0000 </r>
       <r>   16.5620    0.0000 </r>
       <r>   16.5803    0.0000 </r>
       <r>   16.6021    0.0000 </r>
       <r>   16.7213    0.0000 </r>
       <r>   16.7338    0.0000 </r>
       <r>   16.7771    0.0000 </r>
       <r>   16.8108    0.0000 </r>
       <r>   16.9080    0.0000 </r>
       <r>   16.9325    0.0000 </r>
       <r>   16.9835    0.0000 </r>
       <r>   17.0320    0.0000 </r>
       <r>   17.1084    0.0000 </r>
       <r>   17.1828    0.0000 </r>
       <r>   17.2240    0.0000 </r>
       <r>   17.2428    0.0000 </r>
       <r>   17.2871    0.0000 </r>
       <r>   17.3026    0.0000 </r>
       <r>   17.4089    0.0000 </r>
       <r>   17.4346    0.0000 </r>
       <r>   17.4600    0.0000 </r>
       <r>   17.5385    0.0000 </r>
       <r>   17.5662    0.0000 </r>
       <r>   17.5925    0.0000 </r>
       <r>   17.6896    0.0000 </r>
       <r>   17.7817    0.0000 </r>
       <r>   17.8045    0.0000 </r>
       <r>   17.9304    0.0000 </r>
       <r>   17.9507    0.0000 </r>
       <r>   17.9920    0.0000 </r>
       <r>   18.0646    0.0000 </r>
       <r>   18.1335    0.0000 </r>
       <r>   18.1671    0.0000 </r>
       <r>   18.1955    0.0000 </r>
       <r>   18.2082    0.0000 </r>
       <r>   18.2962    0.0000 </r>
       <r>   18.3861    0.0000 </r>
       <r>   18.4404    0.0000 </r>
       <r>   18.4730    0.0000 </r>
       <r>   18.5833    0.0000 </r>
       <r>   18.6184    0.0000 </r>
       <r>   18.6460    0.0000 </r>
       <r>   18.6833    0.0000 </r>
       <r>   18.7578    0.0000 </r>
       <r>   18.8508    0.0000 </r>
       <r>   18.9023    0.0000 </r>
       <r>   18.9196    0.0000 </r>
       <r>   18.9583    0.0000 </r>
       <r>   19.0242    0.0000 </r>
       <r>   19.1174    0.0000 </r>
       <r>   19.1409    0.0000 </r>
       <r>   19.2068    0.0000 </r>
       <r>   19.2269    0.0000 </r>
       <r>   19.2696    0.0000 </r>
       <r>   19.3067    0.0000 </r>
       <r>   19.3744    0.0000 </r>
       <r>   19.4106    0.0000 </r>
       <r>   19.5357    0.0000 </r>
       <r>   19.5563    0.0000 </r>
       <r>   19.6454    0.0000 </r>
       <r>   19.7700    0.0000 </r>
      </set>
     </set>
     <set comment="spin 2">
      <set comment="kpoint 1">
       <r>   -4.8504    1.0000 </r>
       <r>   -3.7003    1.0000 </r>
       <r>   -3.5506    1.0000 </r>
       <r>   -3.4540    1.0000 </r>
       <r>   -2.9935    1.0000 </r>
       <r>   -2.8509    1.0000 </r>
       <r>   -2.5578    1.0000 </r>
       <r>   -2.2277    1.0000 </r>
       <r>   -2.1176    1.0000 </r>
       <r>   -2.0118    1.0000 </r>
       <r>   -1.7754    1.0000 </r>
       <r>   -1.6331    1.0000 </r>
       <r>   -1.6015    1.0000 </r>
       <r>   -1.3722    1.0000 </r>
       <r>   -1.1365    1.0000 </r>
       <r>   -0.9256    1.0000 </r>
       <r>   -0.7931    1.0000 </r>
       <r>   -0.6811    1.0000 </r>
       <r>   -0.4114    1.0000 </r>
       <r>   -0.2200    1.0000 </r>
       <r>    0.0207    1.0000 </r>
       <r>    0.2634    1.0000 </r>
       <r>    0.4187    1.0000 </r>
       <r>    0.5906    1.0000 </r>
       <r>    0.6378    1.0000 </r>
       <r>    0.6838    1.0000 </r>
       <r>    0.8468    1.0000 </r>
       <r>    0.9287    1.0000 </r>
       <r>    1.0949    1.0000 </r>
       <r>    1.1607    1.0000 </r>
       <r>    1.3694    1.0000 </r>
       <r>    1.6371    1.0000 </r>
       <r>    1.6906    1.0000 </r>
       <r>    1.8568    1.0000 </r>
       <r>    1.9210    1.0000 </r>
       <r>    2.0085    1.0000 </r>
       <r>    2.0892    1.0000 </r>
       <r>    2.1403    1.0000 </r>
       <r>    2.1670    1.0000 </r>
       <r>    2.2623    1.0000 </r>
       <r>    2.3243    1.0000 </r>
       <r>    2.4277    1.0000 </r>
       <r>    2.5749    1.0000 </r>
       <r>    2.6624    1.0000 </r>
       <r>    2.7124    1.0000 </r>
       <r>    2.8303    1.0000 </r>
       <r>    2.9297    1.0000 </r>
       <r>    2.9426    1.0000 </r>
       <r>    3.0049    1.0000 </r>
       <r>    3.1734    1.0000 </r>
       <r>    3.2235    1.0000 </r>
       <r>    3.3205    1.0000 </r>
       <r>    3.3506    1.0000 </r>
       <r>    3.5328    1.0000 </r>
       <r>    3.6330    1.0000 </r>
       <r>    3.6663    1.0000 </r>
       <r>    3.7689    1.0000 </r>
       <r>    3.8750    1.0000 </r>
       <r>    3.9291    1.0000 </r>
       <r>    3.9902    1.0000 </r>
       <r>    4.0604    1.0000 </r>
       <r>    4.0791    1.0000 </r>
       <r>    4.2624    1.0000 </r>
       <r>    4.4279    1.0000 </r>
       <r>    4.5953    1.0000 </r>
       <r>    4.7078    1.0000 </r>
       <r>    4.8603    1.0000 </r>
       <r>    4.9622    1.0000 </r>
       <r>    5.0771    1.0000 </r>
       <r>    5.1196    1.0000 </r>
       <r>    5.2348    1.0000 </r>
       <r>    5.3735    1.0000 </r>
       <r>    5.5176    1.0000 </r>
       <r>    5.5284    1.0000 </r>
       <r>    5.6051    1.0000 </r>
       <r>    5.7017    1.0000 </r>
       <r>    5.7984    1.0000 </r>
       <r>    5.9325    1.0000 </r>
       <r>    6.0651    1.0000 </r>
       <r>    6.2450    1.0000 </r>
       <r>    6.3122    1.0000 </r>
       <r>    6.4242    1.0000 </r>
       <r>    6.5077    1.0000 </r>
       <r>    6.6279    1.0000 </r>
       <r>    6.6597    1.0000 </r>
       <r>    6.7488    1.0000 </r>
       <r>    6.8402    1.0000 </r>
       <r>    6.9151    1.0000 </r>
       <r>    7.0029    1.0000 </r>
       <r>    7.0615    1.0000 </r>
       <r>    7.1847    1.0000 </r>
       <r>    7.2129    1.0000 </r>
       <r>    7.2738    1.0000 </r>
       <r>    7.3683    1.0000 </r>
       <r>    7.4565    1.0000 </r>
       <r>    7.5256    1.0000 </r>
       <r>    7.5706    1.0000 </r>
       <r>    7.6086    1.0000 </r>
       <r>    7.6997    1.0000 </r>
       <r>    7.7111    1.0000 </r>
       <r>    7.8231    1.0000 </r>
       <r>    7.8396    1.0000 </r>
       <r>    7.8613    1.0000 </r>
       <r>    7.9609    1.0000 </r>
       <r>    8.0028    1.0000 </r>
       <r>    8.1113    1.0000 </r>
       <r>    8.2521    1.0000 </r>
       <r>    8.2600    1.0000 </r>
       <r>    8.3228    1.0000 </r>
       <r>    8.4024    1.0000 </r>
       <r>    8.4686    1.0000 </r>
       <r>    8.5379    1.0000 </r>
       <r>    8.5741    1.0000 </r>
       <r>    8.5999    1.0000 </r>
       <r>    8.6698    1.0000 </r>
       <r>    8.6898    1.0000 </r>
       <r>    8.7683    1.0000 </r>
       <r>    8.7887    1.0000 </r>
       <r>    8.8063    1.0000 </r>
       <r>    8.9029    1.0000 </r>
       <r>    8.9551    1.0000 </r>
       <r>    9.0429    1.0000 </r>
       <r>    9.0757    1.0000 </r>
       <r>    9.0877    1.0000 </r>
       <r>    9.1369    1.0000 </r>
       <r>    9.1821    1.0000 </r>
       <r>    9.2575    1.0000 </r>
       <r>    9.3205    1.0000 </r>
       <r>    9.3870    1.0000 </r>
       <r>    9.5255    1.0000 </r>
       <r>    9.5697    1.0000 </r>
       <r>    9.6676    1.0000 </r>
       <r>    9.7205    1.0000 </r>
       <r>    9.7730    1.0000 </r>
       <r>    9.8057    1.0000 </r>
       <r>    9.8627    1.0000 </r>
       <r>    9.8840    1.0000 </r>
       <r>    9.9546    1.0000 </r>
       <r>   10.0480    1.0000 </r>
       <r>   10.1286    1.0000 </r>
       <r>   10.1854    1.0000 </r>
       <r>   10.2506    1.0000 </r>
       <r>   10.3073    1.0000 </r>
       <r>   10.4345    1.0000 </r>
       <r>   10.4730    1.0000 </r>
       <r>   10.5774    1.0000 </r>
       <r>   10.6218    1.0000 </r>
       <r>   10.6446    1.0000 </r>
       <r>   10.7174    1.0000 </r>
       <r>   10.7861    1.0000 </r>
       <r>   10.8220    1.0000 </r>
       <r>   10.9221    1.0000 </r>
       <r>   10.9694    1.0000 </r>
       <r>   11.0407    1.0000 </r>
       <r>   11.0935    1.0000 </r>
       <r>   11.2038    1.0000 </r>
       <r>   11.3130    1.0000 </r>
       <r>   11.3283    1.0000 </r>
       <r>   11.4173    1.0000 </r>
       <r>   11.4708    1.0000 </r>
       <r>   11.5187    1.0000 </r>
       <r>   11.5990    1.0000 </r>
       <r>   11.6628    1.0000 </r>
       <r>   11.6900    1.0000 </r>
       <r>   11.7646    1.0000 </r>
       <r>   11.8324    1.0000 </r>
       <r>   11.8824    1.0000 </r>
       <r>   11.9490    1.0000 </r>
       <r>   11.9838    1.0000 </r>
       <r>   12.0856    1.0000 </r>
       <r>   12.1748    1.0000 </r>
       <r>   12.1850    1.0000 </r>
       <r>   12.2604    1.0000 </r>
       <r>   12.2946    1.0000 </r>
       <r>   12.3590    1.0000 </r>
       <r>   12.3857    1.0000 </r>
       <r>   12.4651    1.0000 </r>
       <r>   12.5000    1.0000 </r>
       <r>   12.6297    1.0000 </r>
       <r>   12.6654    1.0000 </r>
       <r>   12.7029    1.0000 </r>
       <r>   12.7485    1.0000 </r>
       <r>   12.8966    1.0000 </r>
       <r>   12.9171    1.0000 </r>
       <r>   12.9936    1.0000 </r>
       <r>   13.0401    1.0000 </r>
       <r>   13.1668    1.0000 </r>
       <r>   13.2279    1.0000 </r>
       <r>   13.2716    1.0000 </r>
       <r>   13.4846    1.0000 </r>
       <r>   13.4914    1.0000 </r>
       <r>   13.6230    1.0000 </r>
       <r>   13.7741    1.0000 </r>
       <r>   13.7912    1.0000 </r>
       <r>   13.8994    1.0000 </r>
       <r>   13.9766    1.0000 </r>
       <r>   13.9978    1.0000 </r>
       <r>   14.0388    1.0000 </r>
       <r>   14.0611    0.9998 </r>
       <r>   14.1551    0.7963 </r>
       <r>   14.2211    0.1495 </r>
       <r>   14.2422    0.0510 </r>
       <r>   14.3090    0.0002 </r>
       <r>   14.3992    0.0000 </r>
       <r>   14.4778    0.0000 </r>
       <r>   14.5564    0.0000 </r>
       <r>   14.5833    0.0000 </r>
       <r>   14.6075    0.0000 </r>
       <r>   14.6279    0.0000 </r>
       <r>   14.6930    0.0000 </r>
       <r>   14.8014    0.0000 </r>
       <r>   14.8231    0.0000 </r>
       <r>   14.8731    0.0000 </r>
       <r>   14.9416    0.0000 </r>
       <r>   15.0333    0.0000 </r>
       <r>   15.0739    0.0000 </r>
       <r>   15.1264    0.0000 </r>
       <r>   15.1783    0.0000 </r>
       <r>   15.1982    0.0000 </r>
       <r>   15.2455    0.0000 </r>
       <r>   15.2756    0.0000 </r>
       <r>   15.3518    0.0000 </r>
       <r>   15.3818    0.0000 </r>
       <r>   15.4626    0.0000 </r>
       <r>   15.5064    0.0000 </r>
       <r>   15.5313    0.0000 </r>
       <r>   15.6092    0.0000 </r>
       <r>   15.6633    0.0000 </r>
       <r>   15.6919    0.0000 </r>
       <r>   15.7295    0.0000 </r>
       <r>   15.7634    0.0000 </r>
       <r>   15.8021    0.0000 </r>
       <r>   15.8149    0.0000 </r>
       <r>   15.8952    0.0000 </r>
       <r>   16.0038    0.0000 </r>
       <r>   16.0558    0.0000 </r>
       <r>   16.0751    0.0000 </r>
       <r>   16.1491    0.0000 </r>
       <r>   16.2282    0.0000 </r>
       <r>   16.2394    0.0000 </r>
       <r>   16.3027    0.0000 </r>
       <r>   16.3317    0.0000 </r>
       <r>   16.3673    0.0000 </r>
       <r>   16.4423    0.0000 </r>
       <r>   16.5622    0.0000 </r>
       <r>   16.5804    0.0000 </r>
       <r>   16.6022    0.0000 </r>
       <r>   16.7215    0.0000 </r>
       <r>   16.7340    0.0000 </r>
       <r>   16.7772    0.0000 </r>
       <r>   16.8110    0.0000 </r>
       <r>   16.9082    0.0000 </r>
       <r>   16.9327    0.0000 </r>
       <r>   16.9837    0.0000 </r>
       <r>   17.0322    0.0000 </r>
       <r>   17.1086    0.0000 </r>
       <r>   17.1830    0.0000 </r>
       <r>   17.2242    0.0000 </r>
       <r>   17.2429    0.0000 </r>
       <r>   17.2872    0.0000 </r>
       <r>   17.3027    0.0000 </r>
       <r>   17.4091    0.0000 </r>
       <r>   17.4348    0.0000 </r>
       <r>   17.4602    0.0000 </r>
       <r>   17.5386    0.0000 </r>
       <r>   17.5664    0.0000 </r>
       <r>   17.5927    0.0000 </r>
       <r>   17.6897    0.0000 </r>
       <r>   17.7818    0.0000 </r>
       <r>   17.8047    0.0000 </r>
       <r>   17.9306    0.0000 </r>
       <r>   17.9509    0.0000 </r>
       <r>   17.9922    0.0000 </r>
       <r>   18.0647    0.0000 </r>
       <r>   18.1337    0.0000 </r>
       <r>   18.1673    0.0000 </r>
       <r>   18.1957    0.0000 </r>
       <r>   18.2084    0.0000 </r>
       <r>   18.2964    0.0000 </r>
       <r>   18.3863    0.0000 </r>
       <r>   18.4406    0.0000 </r>
       <r>   18.4731    0.0000 </r>
       <r>   18.5834    0.0000 </r>
       <r>   18.6186    0.0000 </r>
       <r>   18.6462    0.0000 </r>
       <r>   18.6834    0.0000 </r>
       <r>   18.7580    0.0000 </r>
       <r>   18.8509    0.0000 </r>
       <r>   18.9024    0.0000 </r>
       <r>   18.9198    0.0000 </r>
       <r>   18.9585    0.0000 </r>
       <r>   19.0244    0.0000 </r>
       <r>   19.1180    0.0000 </r>
       <r>   19.1415    0.0000 </r>
       <r>   19.2066    0.0000 </r>
       <r>   19.2274    0.0000 </r>
       <r>   19.2775    0.0000 </r>
[...]
       <r>    -2.8316     7.8333     5.7083 </r>
       <r>    -2.7413     3.2203     5.9990 </r>
       <r>    -2.6510     0.0572     6.0042 </r>
       <r>    -2.5607     5.1298     6.4673 </r>
       <r>    -2.4705     5.8264     6.9933 </r>
       <r>    -2.3802     0.0747     7.0000 </r>
       <r>    -2.2899     0.4357     7.0393 </r>
       <r>    -2.1996     8.3908     7.7968 </r>
       <r>    -2.1094     8.8348     8.5944 </r>
       <r>    -2.0191     9.1037     9.4162 </r>
       <r>    -1.9288     6.3625     9.9906 </r>
       <r>    -1.8385     0.5152    10.0371 </r>
       <r>    -1.7483     8.2217    10.7793 </r>
       <r>    -1.6580     5.7188    11.2956 </r>
       <r>    -1.5677    16.6457    12.7982 </r>
       <r>    -1.4774     2.2485    13.0012 </r>
       <r>    -1.3872     3.7093    13.3361 </r>
       <r>    -1.2969     7.1708    13.9834 </r>
       <r>    -1.2066     0.4466    14.0237 </r>
       <r>    -1.1163     7.6701    14.7162 </r>
       <r>    -1.0261     3.1591    15.0014 </r>
       <r>    -0.9358     4.2673    15.3866 </r>
       <r>    -0.8455     7.4321    16.0575 </r>
       <r>    -0.7552     9.0689    16.8762 </r>
       <r>    -0.6650     8.8621    17.6762 </r>
       <r>    -0.5747     3.5721    17.9987 </r>
       <r>    -0.4844     0.2293    18.0194 </r>
       <r>    -0.3941     7.3937    18.6869 </r>
       <r>    -0.3039     3.5537    19.0077 </r>
       <r>    -0.2136     6.2518    19.5721 </r>
       <r>    -0.1233     4.7062    19.9969 </r>
       <r>    -0.0330     0.7459    20.0642 </r>
       <r>     0.0572     8.6958    20.8493 </r>
       <r>     0.1475     1.6738    21.0004 </r>
       <r>     0.2378     2.5961    21.2347 </r>
       <r>     0.3281     8.1619    21.9715 </r>
       <r>     0.4183     5.8049    22.4956 </r>
       <r>     0.5086     5.6412    23.0048 </r>
       <r>     0.5989     8.1067    23.7367 </r>
       <r>     0.6892    19.3652    25.4848 </r>
       <r>     0.7794     5.9821    26.0249 </r>
       <r>     0.8697     8.4624    26.7888 </r>
       <r>     0.9600    11.3260    27.8113 </r>
       <r>     1.0503     3.2398    28.1037 </r>
       <r>     1.1405    11.9795    29.1852 </r>
       <r>     1.2308     8.7626    29.9762 </r>
       <r>     1.3211     1.2142    30.0858 </r>
       <r>     1.4114     8.8226    30.8823 </r>
       <r>     1.5016     1.3035    31.0000 </r>
       <r>     1.5919     1.1452    31.1034 </r>
       <r>     1.6822    13.3110    32.3050 </r>
       <r>     1.7725     7.6788    32.9982 </r>
       <r>     1.8627     6.8509    33.6167 </r>
       <r>     1.9530    13.9084    34.8723 </r>
       <r>     2.0433    11.8010    35.9376 </r>
       <r>     2.1336    17.2140    37.4916 </r>
       <r>     2.2238    17.5665    39.0774 </r>
       <r>     2.3141    13.7220    40.3161 </r>
       <r>     2.4044    10.2707    41.2433 </r>
       <r>     2.4947     8.1885    41.9825 </r>
       <r>     2.5849     7.1258    42.6258 </r>
       <r>     2.6752    12.8381    43.7848 </r>
       <r>     2.7655    13.0721    44.9648 </r>
       <r>     2.8558     9.1371    45.7897 </r>
       <r>     2.9460    16.3379    47.2646 </r>
       <r>     3.0363    17.0936    48.8077 </r>
       <r>     3.1266     3.1889    49.0956 </r>
       <r>     3.2169    13.5402    50.3179 </r>
       <r>     3.3071    12.5821    51.4538 </r>
       <r>     3.3974    15.9399    52.8927 </r>
       <r>     3.4877     2.3056    53.1009 </r>
       <r>     3.5780     9.5749    53.9652 </r>
       <r>     3.6682    15.4963    55.3642 </r>
       <r>     3.7585    11.2549    56.3802 </r>
       <r>     3.8488     9.4025    57.2290 </r>
       <r>     3.9391    15.7412    58.6500 </r>
       <r>     4.0293    16.4253    60.1328 </r>
       <r>     4.1196    18.7634    61.8267 </r>
       <r>     4.2099     2.6808    62.0687 </r>
       <r>     4.3002     8.7384    62.8576 </r>
       <r>     4.3904     3.1761    63.1443 </r>
       <r>     4.4807     8.7351    63.9328 </r>
       <r>     4.5710     3.4691    64.2460 </r>
       <r>     4.6613     9.0497    65.0630 </r>
       <r>     4.7515     9.1939    65.8930 </r>
       <r>     4.8418     4.5178    66.3008 </r>
       <r>     4.9321     9.6965    67.1761 </r>
       <r>     5.0224     9.3397    68.0193 </r>
       <r>     5.1126    13.7959    69.2647 </r>
       <r>     5.2029    10.0690    70.1737 </r>
       <r>     5.2932     8.7326    70.9620 </r>
       <r>     5.3834     7.1837    71.6105 </r>
       <r>     5.4737     6.1566    72.1663 </r>
       <r>     5.5640    18.8854    73.8712 </r>
       <r>     5.6543    12.5886    75.0076 </r>
       <r>     5.7445    10.4527    75.9512 </r>
       <r>     5.8348     9.9723    76.8515 </r>
       <r>     5.9251     6.2691    77.4174 </r>
       <r>     6.0154     7.2333    78.0704 </r>
       <r>     6.1056     8.9071    78.8745 </r>
       <r>     6.1959     2.3112    79.0831 </r>
       <r>     6.2862    11.3720    80.1097 </r>
       <r>     6.3765    10.4630    81.0543 </r>
       <r>     6.4667    10.5771    82.0091 </r>
       <r>     6.5570    10.3413    82.9427 </r>
       <r>     6.6473    12.5221    84.0731 </r>
       <r>     6.7376    14.2816    85.3624 </r>
       <r>     6.8278    11.0270    86.3578 </r>
       <r>     6.9181    12.9695    87.5287 </r>
       <r>     7.0084    12.1383    88.6244 </r>
       <r>     7.0987    13.6660    89.8581 </r>
       <r>     7.1889    10.4936    90.8054 </r>
       <r>     7.2792    19.1330    92.5327 </r>
       <r>     7.3695    10.9068    93.5173 </r>
       <r>     7.4598    11.6004    94.5645 </r>
       <r>     7.5500    16.8008    96.0812 </r>
       <r>     7.6403    19.6980    97.8594 </r>
       <r>     7.7306    18.4397    99.5241 </r>
       <r>     7.8209    15.2231   100.8983 </r>
       <r>     7.9111    23.0323   102.9776 </r>
       <r>     8.0014    15.3124   104.3599 </r>
       <r>     8.0917    10.2348   105.2838 </r>
       <r>     8.1820     8.0935   106.0145 </r>
       <r>     8.2722    15.6416   107.4265 </r>
       <r>     8.3625    17.3990   108.9972 </r>
       <r>     8.4528    13.9707   110.2584 </r>
       <r>     8.5431    16.9130   111.7852 </r>
       <r>     8.6333    24.3601   113.9843 </r>
       <r>     8.7236    21.3550   115.9121 </r>
       <r>     8.8139    25.9391   118.2538 </r>
       <r>     8.9042    14.7503   119.5854 </r>
       <r>     8.9944    15.2507   120.9621 </r>
       <r>     9.0847    22.8007   123.0204 </r>
       <r>     9.1750    25.0270   125.2797 </r>
       <r>     9.2653    15.0352   126.6370 </r>
       <r>     9.3555    15.3537   128.0231 </r>
       <r>     9.4458    10.4230   128.9640 </r>
       <r>     9.5361     9.1336   129.7886 </r>
       <r>     9.6264    14.1824   131.0689 </r>
       <r>     9.7166    15.1335   132.4350 </r>
       <r>     9.8069    21.8712   134.4095 </r>
       <r>     9.8972    23.4693   136.5282 </r>
       <r>     9.9875    14.8122   137.8653 </r>
       <r>    10.0777    11.1954   138.8760 </r>
       <r>    10.1680    14.5373   140.1883 </r>
       <r>    10.2583    16.1889   141.6498 </r>
       <r>    10.3486    13.6676   142.8836 </r>
       <r>    10.4388     9.2129   143.7153 </r>
       <r>    10.5291    14.5733   145.0309 </r>
       <r>    10.6194    17.3341   146.5957 </r>
       <r>    10.7097    19.8796   148.3904 </r>
       <r>    10.7999    16.8151   149.9083 </r>
       <r>    10.8902    13.9493   151.1676 </r>
       <r>    10.9805    16.0687   152.6182 </r>
       <r>    11.0708    15.9734   154.0602 </r>
       <r>    11.1610    11.3523   155.0850 </r>
       <r>    11.2513     9.7580   155.9659 </r>
       <r>    11.3416    16.4759   157.4533 </r>
       <r>    11.4319    14.9111   158.7994 </r>
       <r>    11.5221    18.5956   160.4781 </r>
       <r>    11.6124    13.9163   161.7344 </r>
       <r>    11.7027    20.0955   163.5485 </r>
       <r>    11.7930    15.2505   164.9252 </r>
       <r>    11.8832    17.0808   166.4672 </r>
       <r>    11.9735    18.5028   168.1375 </r>
       <r>    12.0638    12.4048   169.2574 </r>
       <r>    12.1541    13.1467   170.4442 </r>
       <r>    12.2443    20.9133   172.3321 </r>
       <r>    12.3346    20.3891   174.1727 </r>
       <r>    12.4249    20.0101   175.9792 </r>
       <r>    12.5152    17.8171   177.5876 </r>
       <r>    12.6054     7.8081   178.2925 </r>
       <r>    12.6957    21.7923   180.2598 </r>
       <r>    12.7860    17.5788   181.8467 </r>
       <r>    12.8763     6.2031   182.4067 </r>
       <r>    12.9665    19.1516   184.1356 </r>
       <r>    13.0568    16.7315   185.6460 </r>
       <r>    13.1471     7.2260   186.2983 </r>
       <r>    13.2374    16.0728   187.7493 </r>
       <r>    13.3276    13.2024   188.9411 </r>
       <r>    13.4179     1.1890   189.0485 </r>
       <r>    13.5082    15.3130   190.4308 </r>
       <r>    13.5985     8.9875   191.2422 </r>
       <r>    13.6887     8.1544   191.9783 </r>
       <r>    13.7790    10.4391   192.9207 </r>
       <r>    13.8693    13.9601   194.1809 </r>
       <r>    13.9595    13.7701   195.4240 </r>
       <r>    14.0498    27.5167   197.9081 </r>
       <r>    14.1401    15.7887   199.3334 </r>
       <r>    14.2304    18.1116   200.9684 </r>
       <r>    14.3206    18.3677   202.6266 </r>
       <r>    14.4109    11.4140   203.6570 </r>
       <r>    14.5012    12.8239   204.8146 </r>
       <r>    14.5915    23.1985   206.9089 </r>
       <r>    14.6817    26.3850   209.2908 </r>
       <r>    14.7720    10.8060   210.2663 </r>
       <r>    14.8623    21.5970   212.2160 </r>
       <r>    14.9526    15.5584   213.6205 </r>
       <r>    15.0428    13.1040   214.8035 </r>
       <r>    15.1331    20.5705   216.6605 </r>
       <r>    15.2234    25.8511   218.9942 </r>
       <r>    15.3137    22.2073   220.9989 </r>
       <r>    15.4039    19.0104   222.7151 </r>
       <r>    15.4942    17.8490   224.3264 </r>
       <r>    15.5845    20.4958   226.1767 </r>
       <r>    15.6748    19.9481   227.9775 </r>
       <r>    15.7650    28.6906   230.5675 </r>
       <r>    15.8553    26.1988   232.9326 </r>
       <r>    15.9456    11.5337   233.9738 </r>
       <r>    16.0359    14.0107   235.2386 </r>
       <r>    16.1261    21.3103   237.1624 </r>
       <r>    16.2164    15.9988   238.6067 </r>
       <r>    16.3067    24.1345   240.7854 </r>
       <r>    16.3970    23.0107   242.8627 </r>
       <r>    16.4872    11.7072   243.9196 </r>
       <r>    16.5775    16.1451   245.3771 </r>
       <r>    16.6678    18.5988   247.0561 </r>
       <r>    16.7581    21.1257   248.9632 </r>
       <r>    16.8483    21.2944   250.8855 </r>
       <r>    16.9386    17.6265   252.4768 </r>
       <r>    17.0289    20.9832   254.3710 </r>
       <r>    17.1192    14.1460   255.6480 </r>
       <r>    17.2094    18.2902   257.2992 </r>
       <r>    17.2997    30.2972   260.0343 </r>
       <r>    17.3900    15.2615   261.4120 </r>
       <r>    17.4803    24.8073   263.6515 </r>
       <r>    17.5705    21.9021   265.6287 </r>
       <r>    17.6608    17.1417   267.1761 </r>
       <r>    17.7511    11.5166   268.2158 </r>
       <r>    17.8414    17.6691   269.8108 </r>
       <r>    17.9316    11.4929   270.8484 </r>
       <r>    18.0219    22.5725   272.8861 </r>
       <r>    18.1122    15.1443   274.2532 </r>
       <r>    18.2025    28.5196   276.8278 </r>
       <r>    18.2927    17.9825   278.4512 </r>
       <r>    18.3830    11.7649   279.5133 </r>
       <r>    18.4733    19.9941   281.3182 </r>
       <r>    18.5636    11.4423   282.3512 </r>
       <r>    18.6538    24.9736   284.6057 </r>
       <r>    18.7441    18.7979   286.3027 </r>
       <r>    18.8344    11.4882   287.3397 </r>
       <r>    18.9247    23.3040   289.4435 </r>
       <r>    19.0149    20.9707   291.3366 </r>
       <r>    19.1052    12.9100   292.5021 </r>
       <r>    19.1955    22.0538   294.4930 </r>
       <r>    19.2858    25.6831   296.8115 </r>
       <r>    19.3760    19.6841   298.5885 </r>
       <r>    19.4663    15.1079   299.9524 </r>
       <r>    19.5566    17.3502   301.5186 </r>
       <r>    19.6469    11.2948   302.5383 </r>
       <r>    19.7371     8.5370   303.3090 </r>
       <r>    19.8274     7.4399   303.9806 </r>
       <r>    19.9177     0.2151   304.0000 </r>
       <r>    20.0080     0.0000   304.0000 </r>
       <r>    20.0982     0.0000   304.0000 </r>
       <r>    20.1885     0.0000   304.0000 </r>
       <r>    20.2788     0.0000   304.0000 </r>
       <r>    20.3691     0.0000   304.0000 </r>
       <r>    20.4593     0.0000   304.0000 </r>
       <r>    20.5496     0.0000   304.0000 </r>
       <r>    20.6399     0.0000   304.0000 </r>
       <r>    20.7302     0.0000   304.0000 </r>
       <r>    20.8204     0.0000   304.0000 </r>
       <r>    20.9107     0.0000   304.0000 </r>
       <r>    21.0010     0.0000   304.0000 </r>
      </set>
     </set>
    </array>
   </total>
  </dos>
 </calculation>
 <structure name="finalpos" >
  <crystal>
   <varray name="basis" >
    <v>      10.21149500       0.00000000       0.00000000 </v>
    <v>       0.00000000      10.21149500       0.00000000 </v>
    <v>       0.00000000       0.00000000      10.21149500 </v>
   </varray>
   <i name="volume">   1064.79986425 </i>
   <varray name="rec_basis" >
    <v>       0.09792885       0.00000000       0.00000000 </v>
    <v>       0.00000000       0.09792885       0.00000000 </v>
    <v>       0.00000000       0.00000000       0.09792885 </v>
   </varray>
  </crystal>
  <varray name="positions" >
   <v>       0.80000000       0.60000000       0.20000000 </v>
   <v>       0.80000000       0.80000000       0.00000000 </v>
   <v>       0.60000000       0.20000000       0.40000000 </v>
   <v>       0.80000000       0.20000000       0.80000000 </v>
   <v>       0.40000000       0.00000000       0.40000000 </v>
   <v>       0.60000000       0.80000000       0.80000000 </v>
   <v>       0.60000000       0.60000000       0.40000000 </v>
   <v>       0.60000000       0.60000000       0.20000000 </v>
   <v>       0.40000000       0.00000000       0.20000000 </v>
   <v>       0.00000000       0.00000000       0.00000000 </v>
   <v>       0.20000000       0.20000000       0.40000000 </v>
   <v>       0.80000000       0.20000000       0.40000000 </v>
   <v>       0.00000000       0.20000000       0.80000000 </v>
   <v>       0.80000000       0.20000000       0.60000000 </v>
   <v>       0.00000000       0.20000000       0.60000000 </v>
   <v>       0.20000000       0.00000000       0.40000000 </v>
   <v>       0.00000000       0.00000000       0.60000000 </v>
   <v>       0.20000000       0.20000000       0.00000000 </v>
   <v>       0.40000000       0.20000000       0.40000000 </v>
   <v>       0.60000000       0.80000000       0.40000000 </v>
   <v>       0.60000000       0.80000000       0.00000000 </v>
   <v>       0.00000000       0.40000000       0.60000000 </v>
   <v>       0.60000000       0.20000000       0.00000000 </v>
   <v>       0.40000000       0.60000000       0.40000000 </v>
   <v>       0.80000000       0.00000000       0.40000000 </v>
   <v>       0.00000000       0.40000000       0.20000000 </v>
   <v>       0.20000000       0.00000000       0.00000000 </v>
   <v>       0.20000000       0.40000000       0.40000000 </v>
   <v>       0.40000000       0.40000000       0.00000000 </v>
   <v>       0.60000000       0.00000000       0.80000000 </v>
   <v>       0.60000000       0.00000000       0.40000000 </v>
   <v>       0.20000000       0.00000000       0.80000000 </v>
   <v>       0.20000000       0.80000000       0.00000000 </v>
   <v>       0.20000000       0.60000000       0.40000000 </v>
   <v>       0.20000000       0.40000000       0.20000000 </v>
   <v>       0.00000000       0.80000000       0.00000000 </v>
   <v>       0.40000000       0.80000000       0.20000000 </v>
   <v>       0.80000000       0.60000000       0.40000000 </v>
   <v>       0.00000000       0.20000000       0.20000000 </v>
   <v>       0.40000000       0.00000000       0.00000000 </v>
   <v>       0.60000000       0.60000000       0.00000000 </v>
   <v>       0.60000000       0.40000000       0.60000000 </v>
   <v>       0.00000000       0.00000000       0.20000000 </v>
   <v>       0.00000000       0.60000000       0.60000000 </v>
   <v>       0.40000000       0.20000000       0.60000000 </v>
   <v>       0.20000000       0.40000000       0.60000000 </v>
   <v>       0.80000000       0.20000000       0.20000000 </v>
   <v>       0.60000000       0.20000000       0.60000000 </v>
   <v>       0.40000000       0.20000000       0.80000000 </v>
   <v>       0.80000000       0.00000000       0.00000000 </v>
   <v>       0.20000000       0.20000000       0.80000000 </v>
   <v>       0.20000000       0.60000000       0.20000000 </v>
   <v>       0.40000000       0.00000000       0.80000000 </v>
   <v>       0.00000000       0.60000000       0.80000000 </v>
   <v>       0.40000000       0.40000000       0.20000000 </v>
   <v>       0.00000000       0.80000000       0.80000000 </v>
   <v>       0.20000000       0.60000000       0.60000000 </v>
   <v>       0.80000000       0.80000000       0.40000000 </v>
   <v>       0.20000000       0.60000000       0.00000000 </v>
   <v>       0.60000000       0.00000000       0.60000000 </v>
   <v>       0.60000000       0.00000000       0.00000000 </v>
   <v>       0.20000000       0.00000000       0.60000000 </v>
   <v>       0.60000000       0.60000000       0.60000000 </v>
   <v>       0.20000000       0.80000000       0.20000000 </v>
   <v>       0.40000000       0.40000000       0.80000000 </v>
   <v>       0.20000000       0.00000000       0.20000000 </v>
   <v>       0.00000000       0.60000000       0.40000000 </v>
   <v>       0.20000000       0.20000000       0.60000000 </v>
   <v>       0.80000000       0.60000000       0.80000000 </v>
   <v>       0.80000000       0.80000000       0.80000000 </v>
   <v>       0.60000000       0.20000000       0.80000000 </v>
   <v>       0.20000000       0.60000000       0.80000000 </v>
   <v>       0.20000000       0.80000000       0.80000000 </v>
   <v>       0.60000000       0.80000000       0.60000000 </v>
   <v>       0.60000000       0.40000000       0.00000000 </v>
   <v>       0.40000000       0.80000000       0.40000000 </v>
   <v>       0.40000000       0.80000000       0.00000000 </v>
   <v>       0.40000000       0.40000000       0.40000000 </v>
   <v>       0.00000000       0.60000000       0.00000000 </v>
   <v>       0.60000000       0.60000000       0.80000000 </v>
   <v>       0.60000000       0.40000000       0.40000000 </v>
   <v>       0.20000000       0.80000000       0.40000000 </v>
   <v>       0.80000000       0.00000000       0.80000000 </v>
   <v>       0.40000000       0.60000000       0.60000000 </v>
   <v>       0.40000000       0.20000000       0.00000000 </v>
   <v>       0.40000000       0.20000000       0.20000000 </v>
   <v>       0.40000000       0.60000000       0.00000000 </v>
   <v>       0.80000000       0.00000000       0.60000000 </v>
   <v>       0.40000000       0.80000000       0.80000000 </v>
   <v>       0.60000000       0.00000000       0.20000000 </v>
   <v>       0.40000000       0.00000000       0.60000000 </v>
   <v>       0.60000000       0.40000000       0.20000000 </v>
   <v>       0.40000000       0.80000000       0.60000000 </v>
   <v>       0.80000000       0.40000000       0.00000000 </v>
   <v>       0.00000000       0.80000000       0.40000000 </v>
   <v>       0.00000000       0.20000000       0.00000000 </v>
   <v>       0.20000000       0.40000000       0.00000000 </v>
   <v>       0.00000000       0.80000000       0.60000000 </v>
   <v>       0.20000000       0.80000000       0.60000000 </v>
   <v>       0.20000000       0.20000000       0.20000000 </v>
  </varray>
 </structure>
</modeling>
