BEGIN_CFG
 Size
    100
 Supercell
        10.211495      0.000000      0.000000
         0.000000     10.211495      0.000000
         0.000000      0.000000     10.211495
 AtomData:  id type       cartes_x      cartes_y      cartes_z           fx          fy          fz
             1    0      10.126320      7.392550      0.164390     1.598221    2.429712   -1.369335
             2    0       5.836250      7.497710      5.179570    -0.075968   -0.331073   -0.405058
             3    0       0.352960      0.037290      7.303570    -2.101043    3.579883   -1.478219
             4    0       9.994970      1.765670      8.714820     3.299008    3.361963   -1.771990
             5    0       3.344040      0.123940      6.430830    -1.869684    0.566677   -0.723855
             6    0       4.457910      8.153760      7.006900     2.513181    3.382447    0.958985
             7    0       3.602380      6.077050      5.156200    -0.157685    3.076963   -0.574726
             8    0       4.563090      4.791900      8.877070    -0.258577   -0.151015    1.318693
             9    0       6.980110      7.632900      1.989120     0.321526    0.719482    2.236933
            10    0       4.550280      0.450620      0.129960    -1.708382   -2.414473    2.747264
            11    0      10.190920      1.560520      5.591080    -1.611533   -2.353405   -0.398024
            12    0       3.534240      9.062220      1.655600     0.849681    0.644497    0.129038
            13    0       0.443130      4.258560      2.573660    -1.002765    0.189243   -1.645640
            14    0       2.382040      4.021750      0.876730     0.685405    1.457509    2.766049
            15    0       9.980780      2.045070      3.293670    -1.709644    2.839228   -1.124234
            16    0      10.000290      5.209350      0.025340     0.137205   -2.191550    0.309717
            17    0       0.908050      0.279930      3.566120     0.549067   -3.163399    1.163696
            18    0       1.269850      4.158600      8.739940    -3.278485    1.931100   -0.747034
            19    0       6.333720      3.197220      2.583120    -2.165372    2.657886   -1.001877
            20    0       6.800130      4.996800      5.190290    -2.624715    1.415033    0.817543
            21    0       7.163340      2.989800      8.719720     0.441308   -3.518690   -2.405386
            22    0       1.239600      9.152890      5.727380    -0.170964    0.731029   -2.947561
            23    0       4.001580      8.285230      9.174560     0.396669    1.027534   -0.668769
            24    0       6.346050      1.769360      0.719720    -0.460251    0.907951   -1.216245
            25    0       7.019200     10.095590      1.336350     1.044272   -3.016007    1.930541
            26    0       4.495390      4.276570      4.802560     2.328408   -3.198767   -0.574781
            27    0       2.088950      1.887970      2.540740     0.869310    0.980857   -1.930497
            28    0       2.135260      1.689730      4.862320     0.595427   -0.608014    3.022455
            29    0       2.232430      0.868140      0.392900     1.356198   -0.766106    0.441258
            30    0       8.790000      5.145020      6.065320     0.523661    0.646392    2.352221
            31    0       8.760700      0.130410      3.321530    -3.709665    3.628320    0.064563
            32    0       8.303540      0.690330      7.890700     1.015555   -1.678522   -2.943876
            33    0       8.499840      6.301720      4.085750    -1.292995   -2.152366    0.833106
            34    0       6.523250      1.319590      3.544080     4.504535   -3.779112    1.711587
            35    0       8.055330      3.775950      3.747680     1.573727   -0.646760   -0.291286
            36    0       1.033050      6.000680      4.289080    -1.070924   -2.853699   -0.444470
            37    0       8.687150      0.820160     10.059090    -1.350934   -2.074663    1.636796
            38    0       8.250600      1.979500      1.704510     1.753914    0.851862    3.926579
            39    0       0.459160      9.758850      9.645370     0.263668    0.306623    0.848816
            40    0       8.368660      2.514850      6.651530     0.013856    2.523560   -0.808092
            41    0       8.820880      3.159390     10.163070     1.110991    1.289945    1.148494
            42    0       1.922170      7.066200      6.185150    -1.642207    0.555497   -0.646863
            43    0       6.246890      5.753980      3.071850     0.480990   -1.881483   -0.469042
            44    0       9.498650      6.814730      2.334350     1.080048   -0.785040   -2.142944
            45    0       5.596480      3.753210      7.046340     0.030395   -0.474598   -0.833577
            46    0       4.512740      0.341770      8.265150    -1.184837   -2.384819   -1.849491
            47    0       6.608240      3.899340      0.395650    -1.044449    2.133967    0.173769
            48    0       6.616170      0.469150      9.104950    -2.089363    0.118557    1.861253
            49    0       2.810220      2.843890      9.138020     2.234226   -1.164285    1.708676
            50    0       6.643410      9.346250      7.343610    -0.558520    0.605454   -1.146244
            51    0       4.548140      4.841280      1.360010     0.973254    0.200175   -0.254046
            52    0       1.429700      6.402920      1.564480     1.127165   -1.043081    1.017522
            53    0       2.044500      8.951860      7.980970     1.813251   -1.310179   -0.497110
            54    0       8.982900      6.447790      8.288090    -1.632637   -1.017943   -0.527905
            55    0       5.388360     10.033250      5.474220     1.188097   -2.600377   -1.204451
            56    0       8.923090      9.207940      6.046920     0.111131    0.988721    0.704503
            57    0       6.442680      2.709950      5.142250     2.053871    2.385179    1.052877
            58    0       7.697210      8.423270      4.089960    -1.922316    0.987355    0.974441
            59    0       8.161630      6.833730      0.307530    -2.205751   -2.032815   -0.693938
            60    0       4.919300      0.905130      2.387740    -4.023160   -0.246999   -1.940344
            61    0       8.011160      8.820350      9.452410     1.816196    1.284796    0.399923
            62    0       5.973670      1.416980      6.877020     0.424240    1.431301    1.688871
            63    0       2.080650      3.708620      4.080510    -0.734498    1.722472    1.716183
            64    0       9.125800      9.037230      1.496040    -2.041785   -1.217890   -1.684818
            65    0       5.691860      8.392110      0.389190    -0.764900    1.920080    0.731573
            66    0       1.967090      7.954340      9.975510     1.841744    0.199804    0.230496
            67    0       3.258700      4.559320      6.741670    -0.946582   -2.638379    0.036759
            68    0       1.190140      3.027040      6.681850    -0.033746   -2.208334    0.393006
            69    0       6.863030      5.088050      8.508480     1.286898    2.485851    0.774818
            70    0       7.838210      0.652440      5.397610    -1.540107    1.692942   -1.537986
            71    0       3.301160      2.383260      7.026540     2.120727   -1.449601   -1.919804
            72    0       9.763170      7.323230      5.657640     1.514514   -2.273354    0.850262
            73    0       1.894190      7.895780      3.674090     0.674378    1.036229   -2.577691
            74    0       7.530630      7.491100      6.642470     1.742358   -2.710246   -0.552029
            75    0       6.065600      6.059950      0.461330     0.273338    0.707238   -0.930058
            76    0       4.467290      1.736270      4.844820    -1.466956    1.082053   -0.406570
            77    0       1.284740      8.967860      1.559660    -0.433605    0.503871    2.652492
            78    0       3.899340      6.977850      0.873010     0.419758   -0.195540    1.687712
            79    0       1.095490      6.869880      8.233970     0.388427   -3.703164    0.790628
            80    0       9.861550      8.434240      8.076380    -2.916531   -0.470359   -0.144172
            81    0       2.665380      5.707030      9.727200    -0.768091    0.503875   -0.548426
            82    0       9.931290      3.691220      4.827560     1.880690    0.990350    0.787354
            83    0       2.013980      0.905140      8.311450     1.476472    1.774136    0.985407
            84    0       3.360480      8.462330      5.226120     1.594201    0.963513   -3.151131
            85    0       0.843650      2.691110      0.502280    -3.026616   -0.568121   -0.038094
            86    0       6.416720      7.545010      8.701450    -1.522546   -2.068553   -0.630556
            87    0       3.162340      5.331810      2.946890    -1.875017    1.758373    0.272144
            88    0       5.439900      9.078050      3.327500     1.258768    1.260455   -0.032428
            89    0       5.055150      2.374650      8.997740    -0.435613    1.351017   -1.279326
            90    0       3.953070      3.178720      2.912280     0.833613   -0.809540    1.464892
            91    0       4.561060      7.106530      3.338860    -1.951249    0.202705   -1.827330
            92    0       5.512690      6.131260      7.060090     0.966754   -0.669660   -1.406481
            93    0       3.169280      0.069880      3.642060     0.912197   -1.563392   -0.300789
            94    0       8.171220      4.800490      1.740120     1.084501    0.724678   -0.022694
            95    0       9.881480      8.651910      3.594500     2.754759   -3.436467    1.930986
            96    0       0.099790      0.671530      1.404070     0.756917    1.810432    0.466709
            97    0       3.401650      6.457270      7.683940    -0.455936   -0.208819    3.194528
            98    0       0.874470      5.100540      6.639250    -1.229121    2.059477   -0.484277
            99    0       9.000320      4.158140      8.154010     1.903527    0.238145   -0.472614
           100    0       4.360090      2.703270      0.871870    -1.696473   -0.793736   -1.287935
 Energy
       -402.511119290000
 PlusStress:  xx          yy          zz          yz          xz          xy
       463.08447   511.38713   467.00961     8.69340     6.95351     9.70732
 Feature   EFS_by	VASP
END_CFG

BEGIN_CFG
 Size
    100
 Supercell
        10.211495      0.000000      0.000000
         0.000000     10.211495      0.000000
         0.000000      0.000000     10.211495
 AtomData:  id type       cartes_x      cartes_y      cartes_z           fx          fy          fz
             1    0       8.775710      4.125920      3.607130     1.288765    1.574996   -2.394112
             2    0       4.612000      0.853620      3.646780    -1.719063    0.919763   -4.178483
             3    0       9.081990      8.098960      8.245020     1.385677    1.413933    2.054854
             4    0      10.040810      0.762070      6.214810    -0.920289   -5.578771    2.847385
             5    0       6.456850      9.886240      6.238730     2.631777   -5.749940    4.252618
             6    0       2.990130      8.364590      7.592840     1.194422    0.093480    0.801137
             7    0       7.039920      7.225650      6.439390     0.788596   -0.281850    2.034848
             8    0       5.641010      6.424090      0.251640     2.647047   -2.942472   -1.747779
             9    0       8.796150      6.159200      2.484640     2.115366   -0.110818    1.791071
            10    0       3.381640      6.964700      5.857940    -0.109345    2.149743   -2.623065
            11    0       1.031230      2.295580      1.994580    -0.168780   -2.565708   -1.426627
            12    0       3.095490      7.036680      3.420920     2.176815   -0.521488    0.555586
            13    0       9.236510      6.589980      6.590830    -0.724074   -2.005378    1.587731
            14    0       2.445050      0.468830      2.695610    -0.975691    1.343887   -0.161035
            15    0       8.521550      9.090210      6.382060     0.777667   -1.301066    4.430668
            16    0       1.545470      6.002280      9.486410     0.460965   -0.181854   -2.635286
            17    0       2.286800      8.890070      4.230390     3.436325   -0.003125    0.642817
            18    0       0.931470      6.842000      2.906660    -3.700156    0.866432   -0.188999
            19    0       8.909410      8.504140      2.227540    -2.353084   -1.873143   -0.350865
            20    0       5.922320      3.361760      5.858270     1.401293   -0.003414   -1.252156
            21    0       5.959760      4.134540      9.234090    -1.276388    0.638501   -0.387825
            22    0       0.797440      9.027230      5.771790    -1.794915   -0.969789    0.159848
            23    0       2.201140      3.578770      0.668200    -0.481975   -0.069256    1.126502
            24    0       5.801190      0.224930      9.870440    -2.275826   -0.037158   -1.687766
            25    0       6.941020     10.149600      3.526550    -2.362674    0.682556   -1.545300
            26    0       5.600570      3.412670      1.200340     2.997737    5.807585    1.062239
            27    0       1.225980      8.280190      9.323650    -0.170704   -0.011638    0.169590
            28    0       0.013070      2.300880      8.306890    -0.787024   -1.597839   -2.117177
            29    0       2.932380      0.050650      9.671090     0.341692   -1.589628   -0.957211
            30    0       8.336740      3.507020      5.575800    -4.363496    1.727017   -0.276669
            31    0       9.438070      0.345380      1.810800     0.837675    2.542949    2.652916
            32    0       2.121380      5.955470      1.381520    -2.515896    0.457528   -1.364104
            33    0       6.596450      6.984320      2.047090     8.283107   -1.704610    1.851000
            34    0       1.035970      9.976800      0.736040     1.131543    0.162714    0.406046
            35    0       0.397280      4.391620      2.116490    -2.517508    1.763168   -0.800153
            36    0       7.479170      5.699180      4.787800    -0.364762   -1.732355    0.049181
            37    0       2.729400      1.498940      6.959330    -1.689239   -1.202757    3.301666
            38    0       7.910130      5.522210      0.663240    -1.262556    1.162253   -0.287586
            39    0       0.018950      7.232140      0.818410    -0.410452    0.366070   -0.232346
            40    0       7.199800      6.226810      8.843890    -0.110695    2.097481   -1.329837
            41    0       0.141930      4.123160      9.729810     3.343872    1.632672    0.938031
            42    0       7.190300      7.924410      4.141580    -1.557852    0.159148   -0.458956
            43    0       4.668910      4.185790      3.988190     0.210084   -1.687270   -0.213094
            44    0       2.312230      4.901340      3.330650     0.426306    2.005108   -0.401433
            45    0       5.205750      8.159660      5.979790    -2.094710   -0.381410   -0.183917
            46    0       4.733280      9.927550      7.876530    -0.269254    0.616189   -0.759753
            47    0       8.773760      9.550490      4.459500     2.154868    0.987506   -3.344308
            48    0       7.890680      0.675070      7.955810     1.009166   -2.590096    0.826045
            49    0       4.039230      1.845230      8.744640    -0.378179   -0.467547    1.948433
            50    0       1.358670      9.920460      7.742460    -0.615247    1.964224    0.766832
            51    0       4.863750      7.769230      1.937300    -7.380531    4.199417   -0.311035
            52    0       1.205790      6.781350      5.022590     2.432356    0.314945   -0.817569
            53    0       1.866410      0.819510      4.894560     1.480667    0.970607    1.422204
            54    0       1.627590      1.797320      9.688120     0.174539   -0.853325    0.887969
            55    0       4.278230      2.038990      0.820400    -6.169522   -3.989576   -1.853817
            56    0       5.880300      1.724820      7.471640     0.677386    0.641299    2.481625
            57    0       6.290900      2.622810      3.475000    -1.634735   -0.189267    0.997395
            58    0       9.294220      7.049750      4.500190     0.351365    1.447273   -1.878977
            59    0       3.655800      6.843880      0.113340    -4.715907    0.280817   -1.537408
            60    0       3.231270      3.007140      2.665880     0.794846   -3.136745    0.155078
            61    0       6.655380      8.797320      8.603640    -0.011713   -0.456739   -3.838647
            62    0       4.583800      8.559450      9.562420    -0.673324   -0.095364    1.245864
            63    0       5.164470      5.530660      5.812710     0.802337    0.043519    2.983029
            64    0       6.249710      1.276330      1.580020     0.845194   -0.037599    3.466965
            65    0       5.172770      6.895020      8.026660    -1.445970   -0.727485   -0.483760
            66    0       4.020100      5.222850      1.858610     4.151392   -0.820103    0.349942
            67    0       2.149660      3.707660      8.531190    -0.987383    0.526186    1.050641
            68    0      10.163120      2.622700      5.687460     0.315666    1.630268    0.752860
            69    0       1.130020      7.107550      7.098830    -0.654695    0.283587    4.035768
            70    0       8.345140      1.961630      3.335220    -0.348609   -1.272579   -0.833680
            71    0       4.408930      3.651060      7.565170    -0.170214    2.356864   -0.283809
            72    0       7.825060      1.232620      5.531940     1.876597    2.228207   -0.499523
            73    0       0.201660      4.899440      5.390840    -1.503269    1.337545   -0.883487
            74    0       7.129950      4.881860      7.036880     0.192517    1.221623   -0.478762
            75    0       7.895230      8.249130     10.207220     3.330860   -2.534526    1.489736
            76    0       3.006490      4.805180      5.369760    -0.120824   -0.293797    0.805420
            77    0       2.303870      8.448080      1.719710     0.258936   -1.123459   -0.239001
            78    0       9.458730      6.062430      9.253770     1.137272    2.251133   -1.292957
            79    0       3.701930      4.558320      9.786810     4.227529    1.969416   -1.495838
            80    0       8.046690      0.474330      0.266450    -3.039127   -1.431019    1.203320
            81    0       9.832690      4.371380      7.431310     0.568166    1.387334   -0.141064
            82    0       2.922180      5.719800      7.472370     0.527232   -2.078010    4.204239
            83    0       1.753120      3.389010      6.514850     0.132342    0.842512   -0.932402
            84    0       3.689150     10.067400      5.934240    -0.079582   -2.342083   -1.822246
            85    0       0.164880      1.410160      3.764370    -2.025834   -1.975919   -0.188401
            86    0       7.963760      2.778330      7.610210    -0.363124   -0.773522   -1.240554
            87    0       4.604560      8.854160      3.944770     0.902035   -0.127934   -0.238646
            88    0       9.478450      2.408340      0.366490     0.764688   -2.918738    0.722267
            89    0       6.887400      2.034810      9.708920     0.118456    4.642961   -1.995091
            90    0       3.848190      2.453620      5.434960    -1.986698    2.153263   -2.442839
            91    0       7.909120      3.392440      1.321020    -1.017203    0.043305    1.659706
            92    0       5.571720      1.158980      5.429050    -1.164033    4.358852   -3.229707
            93    0       4.049510      9.958730      1.392230     2.221374   -0.358762    0.203866
            94    0       6.590630      4.824680      2.730340     0.709008   -0.276517   -0.123062
            95    0       9.717990      0.285120      9.385830     3.872681   -1.725659   -4.284047
            96    0       1.186840      3.398090      4.192450     1.620479   -2.132901   -1.894247
            97    0       6.606170      9.267790      1.358300    -0.801600   -1.192315    3.034085
            98    0       5.271550      6.301710      3.816810     0.168606    2.741013   -1.066570
            99    0       8.257620      4.223680      9.081860    -1.611649   -1.178547    1.837482
           100    0       0.416380      9.261340      3.362370     0.180093    0.196018   -1.613519
 Energy
       -393.330279140000
 PlusStress:  xx          yy          zz          yz          xz          xy
       519.78524   512.28491   499.72394   -16.85366    13.78245   -15.45879
 Feature   EFS_by	VASP
END_CFG

BEGIN_CFG
 Size
    100
 Supercell
        10.211495      0.000000      0.000000
         0.000000     10.211495      0.000000
         0.000000      0.000000     10.211495
 AtomData:  id type       cartes_x      cartes_y      cartes_z           fx          fy          fz
             1    0       1.329390      4.404460      4.282090    -0.393873    0.018640   -0.788584
             2    0       8.414830      1.311090      4.640650     0.751368   -1.883163   -1.553351
             3    0       9.788380      6.778470      7.273560    -0.667449    1.143909    2.171133
             4    0       7.662830      3.531640      5.995450    -1.591955   -0.173768    1.384613
             5    0       5.762580      9.950980      8.614410     0.452220    0.465219    0.564769
             6    0       9.875330      8.060220      9.194070    -0.269671    0.573343   -1.896316
             7    0       4.568840      6.986460      9.235640    -1.487631    0.477859   -1.197886
             8    0       4.977630      5.654360      7.149960     2.384426    0.007786    1.318263
             9    0       6.351430      7.510240      0.163050    -0.150650    0.909002    0.315243
            10    0       1.097900      5.465610      6.311100     1.305628    0.390896   -0.006491
            11    0       9.709810      2.430210      2.948660    -0.798043    0.702777   -1.467147
            12    0       3.163600      5.309470      3.004820     0.832012    1.538443   -0.117199
            13    0       0.146670      6.885570      4.784970     1.034246    2.575799   -1.772344
            14    0       5.194510      9.647820      2.175110    -2.027795   -1.088055    1.322884
            15    0       8.982990      9.557700      7.014860     3.642203   -1.261248    0.541187
            16    0       0.248260      4.603760      9.776900     0.887177   -2.919512   -2.798982
            17    0       3.012390      9.018240      5.653090    -1.801314   -2.496706   -0.145390
            18    0       1.712630      8.758320      3.643560    -1.801266    0.904020    0.264350
            19    0       8.112960      9.156060      4.440370    -0.674613    0.399497   -0.662570
            20    0       8.204130      7.472620      5.968600    -2.035404    2.181468   -1.397944
            21    0       6.053610      3.578980      7.790260    -0.094622    3.076589   -0.625590
            22    0      10.189850      9.154910      5.094720     0.090142   -0.427074    0.283729
            23    0       4.913180      1.595820      3.300480     0.784378    0.552476   -2.150371
            24    0       8.139270      0.036560      9.158410    -0.412955    0.075741    0.273918
            25    0       8.333460      0.226190      2.331460     1.737809   -1.371886    2.373729
            26    0       4.785950      3.277910      9.840740     0.615447    2.125845    0.439900
            27    0       9.752910      8.281730      2.785470    -0.291250   -0.065570   -0.695601
            28    0       9.852510      1.369390      6.318950    -0.357630   -0.199304    1.949859
            29    0       8.295520      3.469940      9.334230     0.202344    1.943936   -1.224842
            30    0       7.929400      6.790710      3.442750     3.633742   -3.446986    4.325878
            31    0       9.808690     10.071140      0.405600     0.913220    0.161401   -0.902738
            32    0       1.394690      4.460640      1.599630     0.182552   -0.357224    1.730132
            33    0       6.861020      3.693280      1.022460    -2.054276   -1.398498    0.250562
            34    0       1.027510      8.110410      0.732330     1.250762    1.134484    0.445440
            35    0       0.787050      2.319040      0.752370    -1.148034   -1.748612   -0.393033
            36    0       5.890690      7.723600      4.933820     0.452481   -0.177324    0.868226
            37    0       1.770440      1.633840      8.424690     0.296883    0.548286    1.474338
            38    0       9.057580      4.176530      1.208700     0.809838   -2.478059    2.304846
            39    0       8.404110      8.181510      0.633220     2.054747   -0.736282   -0.213560
            40    0       6.171240      5.287910      9.615130    -0.062496   -0.863285   -2.799683
            41    0       9.742950      2.028230      8.512650     0.768196   -0.117168    0.985555
            42    0       6.951810      9.748690      6.536480    -0.341133   -0.826589   -1.685490
            43    0       5.696400      6.282170      2.992650    -0.925794   -0.077387    0.153622
            44    0       4.792600      5.350680      1.058090    -1.514306   -0.087117    1.081335
            45    0       5.455880      7.956070      7.245510    -0.749683   -1.735950    0.928051
            46    0       1.624150      0.441240      6.243010     2.516352   -0.537426    3.482596
            47    0       0.824450      0.880070      4.389200    -0.422926    1.467675   -3.019624
            48    0       6.362220      1.713770      5.067340    -0.390155    1.260115   -0.137400
            49    0       3.938960      1.298490      9.574230    -0.456805   -1.861218   -1.251310
            50    0       0.711050     10.022920      8.363610    -1.963022   -2.743751   -0.147432
            51    0       4.441760      9.184660      0.012250     0.293371    0.292075   -0.624643
            52    0       1.170950      8.186290      6.792890     0.502895    1.507488    0.906973
            53    0       3.266980      0.075460      3.745200    -0.368643    2.283130    0.260673
            54    0       1.838990      2.381180      2.987930    -0.497241   -0.058616   -0.321092
            55    0       3.463470     10.152080      7.644330    -1.012831    0.718764    2.229145
            56    0       5.202470      3.648510      5.619590     0.819313    0.516784   -0.204612
            57    0       7.149960      2.065270      2.622490    -0.139587    1.042957    1.576676
            58    0       2.387870      6.896340      4.675570     0.811002   -1.723587    2.056495
            59    0       2.526780      3.464470     10.158090    -1.028136   -0.806077   -1.385970
            60    0       6.705930      5.616910      5.300950    -1.242909   -0.665890   -0.682458
            61    0       2.511710      8.481490      9.003610     0.127935   -0.983685   -0.705961
            62    0       6.803960      9.887260      0.833020     1.843013   -1.432544   -3.937514
            63    0       4.419990      5.814190      4.958030    -0.501787    0.264799   -1.100484
            64    0       3.224090      1.194540      1.557260     1.514259    2.609073    1.550047
            65    0       2.515920      6.196200      0.415030     0.430613   -0.222239    0.870931
            66    0       3.403770      5.033880      8.835260     0.336043    0.532405   -0.985299
            67    0       3.773330      3.421940      1.853030    -1.464070   -0.960618   -1.933737
            68    0       9.440380      4.583080      7.446830    -1.586884   -2.170585    1.065646
            69    0       8.967370      5.471050      5.387360    -0.129563   -3.721733   -1.546493
            70    0       0.696970      0.189020      2.302170     0.167166   -0.011325   -0.451964
            71    0       3.118880      4.444420      6.476300    -0.036570    1.937590   -1.454258
            72    0       9.593520      3.126080      5.076390     1.962141    3.022879   -0.904043
            73    0       9.986220      5.515820      2.916740    -2.019146   -1.145057    2.131847
            74    0       7.547910      8.176250      8.183500    -0.072993   -1.143087    1.997708
            75    0       7.799130      1.352340      7.340500    -0.137003    3.222089   -0.628052
            76    0       4.015010      8.157240      3.753480     1.881017   -1.026733   -0.693318
            77    0       9.990720      6.215690      0.827400     0.029756    3.785511    0.856995
            78    0       1.631360      2.782460      5.919110     0.332297   -1.347492   -1.491380
            79    0       5.489370      3.869520      3.028830     2.709185    1.385000    2.078670
            80    0       5.635050      1.397520      0.971780    -1.985804    3.129569    0.251573
            81    0       1.279900      6.391320      8.852030     0.439759    0.612226   -1.806542
            82    0       1.272350      3.802130      7.863260    -0.198530    0.237218    2.304088
            83    0       3.763000      1.645990      5.217120    -0.625379   -1.879748    4.060079
            84    0       3.064520      6.894760      7.099290    -0.255897    0.611678   -0.018107
            85    0       2.901620      9.297670      1.779300    -1.586648   -1.971099    0.383910
            86    0       8.365150      5.874890      9.570710     1.098506    0.991852   -2.171077
            87    0       4.903190      9.765590      6.063310    -0.504881    0.943307   -1.177425