 100 100   0   0
  0.1064800E+02  0.1021150E-08  0.1021150E-08  0.1021150E-08  0.5000000E-15
  1.000000000000000E-004
  CAR 
 unknown system                          
     21.64837841     -4.20162673  301     14.84646653      1.00000000
     -4.202  0.0000E+00  0.0000E+00  0.0000E+00  0.0000E+00
     -4.115  0.0000E+00  0.0000E+00  0.0000E+00  0.0000E+00
     -4.029  0.0000E+00  0.0000E+00  0.0000E+00  0.0000E+00
     -3.943  0.0000E+00  0.0000E+00  0.0000E+00  0.0000E+00
     -3.857  0.0000E+00  0.0000E+00  0.0000E+00  0.0000E+00
     -3.771  0.0000E+00  0.0000E+00  0.0000E+00  0.0000E+00
     -3.685  0.0000E+00  0.0000E+00  0.0000E+00  0.0000E+00
     -3.598  0.0000E+00  0.0000E+00  0.0000E+00  0.0000E+00
     -3.512  0.0000E+00  0.0000E+00  0.0000E+00  0.0000E+00
     -3.426  0.0000E+00  0.0000E+00  0.0000E+00  0.0000E+00
     -3.340  0.0000E+00  0.0000E+00  0.0000E+00  0.0000E+00
     -3.254  0.7640E-09  0.7049E-09  0.6583E-10  0.6074E-10
     -3.168  0.3865E-03  0.3671E-03  0.3330E-04  0.3163E-04
     -3.081  0.7013E+00  0.6844E+00  0.6046E-01  0.5901E-01
     -2.995  0.8725E+01  0.8703E+01  0.8123E+00  0.8089E+00
     -2.909  0.2174E+01  0.2212E+01  0.9996E+00  0.9995E+00
     -2.823  0.5160E-02  0.5391E-02  0.1000E+01  0.1000E+01
     -2.737  0.4865E-07  0.5230E-07  0.1000E+01  0.1000E+01
     -2.651  0.1288E-14  0.1288E-14  0.1000E+01  0.1000E+01
     -2.564  0.0000E+00  0.0000E+00  0.1000E+01  0.1000E+01
     -2.478  0.0000E+00  0.0000E+00  0.1000E+01  0.1000E+01
     -2.392  0.0000E+00  0.0000E+00  0.1000E+01  0.1000E+01
     -2.306  0.0000E+00  0.0000E+00  0.1000E+01  0.1000E+01
     -2.220  0.6442E-14  0.5798E-14  0.1000E+01  0.1000E+01
     -2.134  0.1441E-06  0.1351E-06  0.1000E+01  0.1000E+01
     -2.047  0.9896E-02  0.9523E-02  0.1001E+01  0.1001E+01
     -1.961  0.2798E+01  0.2758E+01  0.1242E+01  0.1238E+01
     -1.875  0.8320E+01  0.8349E+01  0.1959E+01  0.1958E+01
     -1.789  0.4785E+00  0.4901E+00  0.2000E+01  0.2000E+01
     -1.703  0.1106E+01  0.1080E+01  0.2095E+01  0.2093E+01
     -1.617  0.1651E+02  0.1643E+02  0.3518E+01  0.3509E+01
     -1.530  0.1767E+02  0.1768E+02  0.5040E+01  0.5032E+01
     -1.444  0.1519E+02  0.1522E+02  0.6349E+01  0.6343E+01
     -1.358  0.7369E+01  0.7436E+01  0.6984E+01  0.6984E+01
     -1.272  0.1813E+00  0.1874E+00  0.7000E+01  0.7000E+01
     -1.186  0.2554E-04  0.2721E-04  0.7000E+01  0.7000E+01
     -1.100  0.1210E-10  0.1331E-10  0.7000E+01  0.7000E+01
     -1.013  0.0000E+00  0.0000E+00  0.7000E+01  0.7000E+01
     -0.927  0.0000E+00  0.0000E+00  0.7000E+01  0.7000E+01
     -0.841  0.6655E-12  0.6049E-12  0.7000E+01  0.7000E+01
     -0.755  0.3583E-05  0.3358E-05  0.7000E+01  0.7000E+01
     -0.669  0.6278E-01  0.6055E-01  0.7005E+01  0.7005E+01
     -0.583  0.5250E+01  0.5193E+01  0.7458E+01  0.7453E+01
     -0.496  0.1017E+02  0.1017E+02  0.8334E+01  0.8329E+01
     -0.410  0.1373E+02  0.1372E+02  0.9517E+01  0.9511E+01
     -0.324  0.1278E+02  0.1276E+02  0.1062E+02  0.1061E+02
     -0.238  0.1707E+02  0.1710E+02  0.1209E+02  0.1208E+02
     -0.152  0.2026E+02  0.2019E+02  0.1384E+02  0.1382E+02
     -0.066  0.1979E+02  0.1984E+02  0.1554E+02  0.1553E+02
      0.021  0.1559E+02  0.1559E+02  0.1688E+02  0.1688E+02
      0.107  0.1898E+02  0.1898E+02  0.1852E+02  0.1851E+02
      0.193  0.5551E+01  0.5632E+01  0.1900E+02  0.1900E+02
      0.279  0.3723E-01  0.3866E-01  0.1900E+02  0.1900E+02
      0.365  0.1342E-05  0.1433E-05  0.1900E+02  0.1900E+02
      0.451  0.1598E-12  0.1752E-12  0.1900E+02  0.1900E+02
      0.538  0.0000E+00  0.0000E+00  0.1900E+02  0.1900E+02
      0.624  0.0000E+00  0.0000E+00  0.1900E+02  0.1900E+02
      0.710  0.2982E-11  0.2710E-11  0.1900E+02  0.1900E+02
      0.796  0.9951E-05  0.9326E-05  0.1900E+02  0.1900E+02
      0.882  0.1097E+00  0.1060E+00  0.1901E+02  0.1901E+02
      0.968  0.6221E+01  0.6161E+01  0.1955E+02  0.1954E+02
      1.055  0.1233E+02  0.1232E+02  0.2061E+02  0.2060E+02
      1.141  0.1981E+02  0.1977E+02  0.2231E+02  0.2230E+02
      1.227  0.2011E+02  0.2013E+02  0.2405E+02  0.2404E+02
      1.313  0.1255E+02  0.1259E+02  0.2513E+02  0.2512E+02
      1.399  0.1352E+02  0.1350E+02  0.2629E+02  0.2629E+02
      1.485  0.7982E+01  0.8045E+01  0.2698E+02  0.2698E+02
      1.572  0.2140E+00  0.2202E+00  0.2700E+02  0.2700E+02
      1.658  0.3503E-04  0.3699E-04  0.2700E+02  0.2700E+02
      1.744  0.1943E-10  0.2108E-10  0.2700E+02  0.2700E+02
      1.830  0.0000E+00  0.0000E+00  0.2700E+02  0.2700E+02
      1.916  0.0000E+00  0.0000E+00  0.2700E+02  0.2700E+02
      2.002  0.0000E+00  0.0000E+00  0.2700E+02  0.2700E+02
      2.089  0.2709E-09  0.2494E-09  0.2700E+02  0.2700E+02
      2.175  0.1981E-03  0.1877E-03  0.2700E+02  0.2700E+02
      2.261  0.5139E+00  0.5007E+00  0.2704E+02  0.2704E+02
      2.347  0.1059E+02  0.1052E+02  0.2796E+02  0.2795E+02
      2.433  0.1915E+02  0.1915E+02  0.2961E+02  0.2960E+02
      2.519  0.1444E+02  0.1449E+02  0.3085E+02  0.3085E+02
      2.606  0.1354E+02  0.1346E+02  0.3202E+02  0.3201E+02
      2.692  0.1121E+02  0.1132E+02  0.3298E+02  0.3298E+02
      2.778  0.1841E+00  0.1905E+00  0.3300E+02  0.3300E+02
      2.864  0.1749E-04  0.1863E-04  0.3300E+02  0.3300E+02
      2.950  0.6048E-11  0.6636E-11  0.3300E+02  0.3300E+02
      3.036  0.6442E-15  0.6442E-15  0.3300E+02  0.3300E+02
      3.123  0.2970E-07  0.2765E-07  0.3300E+02  0.3300E+02
      3.209  0.3823E-02  0.3660E-02  0.3300E+02  0.3300E+02
      3.295  0.1926E+01  0.1892E+01  0.3317E+02  0.3316E+02
      3.381  0.8929E+01  0.8941E+01  0.3394E+02  0.3393E+02
      3.467  0.7273E+01  0.7213E+01  0.3456E+02  0.3456E+02
      3.553  0.1938E+02  0.1936E+02  0.3623E+02  0.3622E+02
      3.640  0.2437E+02  0.2432E+02  0.3833E+02  0.3832E+02
      3.726  0.2982E+02  0.2982E+02  0.4090E+02  0.4089E+02
      3.812  0.4181E+02  0.4174E+02  0.4450E+02  0.4449E+02
      3.898  0.3081E+02  0.3089E+02  0.4716E+02  0.4715E+02
      3.984  0.3249E+02  0.3244E+02  0.4996E+02  0.4994E+02
      4.070  0.2516E+02  0.2522E+02  0.5213E+02  0.5212E+02
      4.157  0.2251E+02  0.2251E+02  0.5407E+02  0.5406E+02
      4.243  0.1696E+02  0.1699E+02  0.5553E+02  0.5552E+02
      4.329  0.1432E+02  0.1434E+02  0.5676E+02  0.5675E+02
      4.415  0.2770E+01  0.2835E+01  0.5700E+02  0.5700E+02
      4.501  0.8918E-02  0.9474E-02  0.5700E+02  0.5700E+02
      4.587  0.1576E-06  0.1682E-06  0.5700E+02  0.5700E+02
      4.674  0.4358E-02  0.4185E-02  0.5700E+02  0.5700E+02
      4.760  0.2090E+01  0.2055E+01  0.5718E+02  0.5718E+02
      4.846  0.1455E+02  0.1449E+02  0.5843E+02  0.5843E+02
      4.932  0.1954E+02  0.1953E+02  0.6012E+02  0.6011E+02
      5.018  0.2347E+02  0.2342E+02  0.6214E+02  0.6213E+02
      5.104  0.3402E+02  0.3399E+02  0.6507E+02  0.6506E+02
      5.191  0.3654E+02  0.3657E+02  0.6822E+02  0.6821E+02
      5.277  0.2344E+02  0.2347E+02  0.7024E+02  0.7023E+02
      5.363  0.3527E+02  0.3521E+02  0.7328E+02  0.7326E+02
      5.449  0.2788E+02  0.2798E+02  0.7568E+02  0.7567E+02
      5.535  0.1840E+02  0.1837E+02  0.7727E+02  0.7726E+02
      5.621  0.1713E+02  0.1721E+02  0.7874E+02  0.7874E+02
      5.708  0.8861E+01  0.8838E+01  0.7951E+02  0.7950E+02
      5.794  0.1007E+02  0.1006E+02  0.8037E+02  0.8037E+02
      5.880  0.7074E+01  0.7141E+01  0.8098E+02  0.8098E+02
      5.966  0.1901E+00  0.1979E+00  0.8100E+02  0.8100E+02
      6.052  0.2802E-04  0.3026E-04  0.8100E+02  0.8100E+02
      6.138  0.1390E-10  0.1560E-10  0.8100E+02  0.8100E+02
      6.225  0.0000E+00  0.0000E+00  0.8100E+02  0.8100E+02
      6.311  0.0000E+00  0.0000E+00  0.8100E+02  0.8100E+02
      6.397  0.0000E+00  0.0000E+00  0.8100E+02  0.8100E+02
      6.483  0.0000E+00  0.0000E+00  0.8100E+02  0.8100E+02
      6.569  0.0000E+00  0.0000E+00  0.8100E+02  0.8100E+02
      6.655  0.0000E+00  0.0000E+00  0.8100E+02  0.8100E+02
      6.742  0.0000E+00  0.0000E+00  0.8100E+02  0.8100E+02
      6.828  0.0000E+00  0.0000E+00  0.8100E+02  0.8100E+02
      6.914  0.0000E+00  0.0000E+00  0.8100E+02  0.8100E+02
      7.000  0.0000E+00  0.0000E+00  0.8100E+02  0.8100E+02
      7.086  0.0000E+00  0.0000E+00  0.8100E+02  0.8100E+02
      7.172  0.1167E-09  0.1078E-09  0.8100E+02  0.8100E+02
      7.259  0.1144E-03  0.1086E-03  0.8100E+02  0.8100E+02
      7.345  0.3894E+00  0.3795E+00  0.8103E+02  0.8103E+02
      7.431  0.8404E+01  0.8360E+01  0.8176E+02  0.8175E+02
      7.517  0.1404E+02  0.1400E+02  0.8297E+02  0.8296E+02
      7.603  0.2069E+02  0.2073E+02  0.8475E+02  0.8475E+02
      7.689  0.1509E+02  0.1501E+02  0.8605E+02  0.8604E+02
      7.776  0.2849E+02  0.2848E+02  0.8851E+02  0.8849E+02
      7.862  0.2552E+02  0.2557E+02  0.9070E+02  0.9070E+02
      7.948  0.1654E+02  0.1652E+02  0.9213E+02  0.9212E+02
      8.034  0.9929E+01  0.1004E+02  0.9299E+02  0.9299E+02
      8.120  0.1669E+00  0.1734E+00  0.9300E+02  0.9300E+02
      8.206  0.1849E-04  0.1987E-04  0.9300E+02  0.9300E+02
      8.293  0.3423E-03  0.3266E-03  0.9300E+02  0.9300E+02
      8.379  0.6626E+00  0.6481E+00  0.9306E+02  0.9306E+02
      8.465  0.9384E+01  0.9347E+01  0.9387E+02  0.9386E+02
      8.551  0.1431E+02  0.1427E+02  0.9510E+02  0.9509E+02
      8.637  0.1691E+02  0.1689E+02  0.9656E+02  0.9655E+02
      8.723  0.2228E+02  0.2228E+02  0.9848E+02  0.9847E+02
      8.810  0.2573E+02  0.2569E+02  0.1007E+03  0.1007E+03
      8.896  0.2426E+02  0.2432E+02  0.1028E+03  0.1028E+03
      8.982  0.2596E+02  0.2585E+02  0.1050E+03  0.1050E+03
      9.068  0.2818E+02  0.2827E+02  0.1074E+03  0.1074E+03
      9.154  0.2640E+02  0.2635E+02  0.1097E+03  0.1097E+03
      9.240  0.2776E+02  0.2777E+02  0.1121E+03  0.1121E+03
      9.327  0.2859E+02  0.2861E+02  0.1146E+03  0.1146E+03
      9.413  0.2541E+02  0.2540E+02  0.1168E+03  0.1168E+03
      9.499  0.2192E+02  0.2196E+02  0.1187E+03  0.1186E+03
      9.585  0.1417E+02  0.1423E+02  0.1199E+03  0.1199E+03
      9.671  0.9764E+01  0.9754E+01  0.1207E+03  0.1207E+03
      9.757  0.8623E+01  0.8591E+01  0.1215E+03  0.1215E+03
      9.844  0.1500E+02  0.1503E+02  0.1228E+03  0.1228E+03
      9.930  0.2993E+01  0.3040E+01  0.1230E+03  0.1230E+03
     10.016  0.6861E+01  0.6810E+01  0.1236E+03  0.1236E+03
     10.102  0.1476E+02  0.1471E+02  0.1249E+03  0.1249E+03
     10.188  0.2937E+02  0.2931E+02  0.1274E+03  0.1274E+03
     10.274  0.2951E+02  0.2954E+02  0.1299E+03  0.1299E+03
     10.361  0.2183E+02  0.2191E+02  0.1318E+03  0.1318E+03
     10.447  0.1488E+02  0.1483E+02  0.1331E+03  0.1331E+03
     10.533  0.1898E+02  0.1898E+02  0.1347E+03  0.1347E+03
     10.619  0.3162E+02  0.3158E+02  0.1375E+03  0.1375E+03
     10.705  0.3003E+02  0.3003E+02  0.1401E+03  0.1400E+03
     10.791  0.2327E+02  0.2336E+02  0.1421E+03  0.1421E+03
     10.878  0.1030E+02  0.1034E+02  0.1430E+03  0.1430E+03
     10.964  0.1056E+02  0.1049E+02  0.1439E+03  0.1439E+03
     11.050  0.2662E+02  0.2659E+02  0.1462E+03  0.1461E+03
     11.136  0.9648E+01  0.9773E+01  0.1470E+03  0.1470E+03
     11.222  0.1367E+00  0.1416E+00  0.1470E+03  0.1470E+03
     11.308  0.1467E+01  0.1440E+01  0.1471E+03  0.1471E+03
     11.395  0.1076E+02  0.1073E+02  0.1481E+03  0.1480E+03
     11.481  0.1056E+02  0.1058E+02  0.1490E+03  0.1490E+03
     11.567  0.1559E+02  0.1550E+02  0.1503E+03  0.1503E+03
     11.653  0.2483E+02  0.2478E+02  0.1524E+03  0.1524E+03
     11.739  0.3600E+02  0.3598E+02  0.1555E+03  0.1555E+03
     11.825  0.3397E+02  0.3404E+02  0.1585E+03  0.1585E+03
     11.912  0.1517E+02  0.1517E+02  0.1598E+03  0.1598E+03
     11.998  0.2481E+02  0.2479E+02  0.1619E+03  0.1619E+03
     12.084  0.2204E+02  0.2203E+02  0.1638E+03  0.1638E+03
     12.170  0.3761E+02  0.3755E+02  0.1671E+03  0.1670E+03
     12.256  0.2076E+02  0.2089E+02  0.1688E+03  0.1688E+03
     12.342  0.1235E+02  0.1239E+02  0.1699E+03  0.1699E+03
     12.429  0.8654E+01  0.8640E+01  0.1707E+03  0.1707E+03
     12.515  0.3937E+01  0.3984E+01  0.1710E+03  0.1710E+03
     12.601  0.4113E-01  0.4146E-01  0.1710E+03  0.1710E+03
     12.687  0.3296E+01  0.3250E+01  0.1713E+03  0.1713E+03
     12.773  0.7938E+01  0.7975E+01  0.1720E+03  0.1720E+03
     12.859  0.5019E+00  0.5074E+00  0.1720E+03  0.1720E+03
     12.946  0.6561E+01  0.6514E+01  0.1726E+03  0.1726E+03
     13.032  0.5581E+01  0.5614E+01  0.1731E+03  0.1731E+03
     13.118  0.9923E+01  0.9880E+01  0.1739E+03  0.1739E+03
     13.204  0.1112E+02  0.1115E+02  0.1749E+03  0.1749E+03
     13.290  0.5965E+01  0.5919E+01  0.1754E+03  0.1754E+03
     13.376  0.2190E+02  0.2189E+02  0.1773E+03  0.1773E+03
     13.463  0.1515E+02  0.1519E+02  0.1786E+03  0.1786E+03
     13.549  0.4859E+01  0.4916E+01  0.1790E+03  0.1790E+03
     13.635  0.3660E+01  0.3609E+01  0.1793E+03  0.1793E+03
     13.721  0.1246E+02  0.1244E+02  0.1804E+03  0.1804E+03
     13.807  0.2089E+02  0.2086E+02  0.1822E+03  0.1822E+03
     13.893  0.9689E+01  0.9775E+01  0.1830E+03  0.1830E+03
     13.980  0.8309E+01  0.8273E+01  0.1837E+03  0.1837E+03
     14.066  0.1136E+02  0.1133E+02  0.1847E+03  0.1847E+03
     14.152  0.1779E+02  0.1779E+02  0.1863E+03  0.1862E+03
     14.238  0.2548E+02  0.2547E+02  0.1884E+03  0.1884E+03
     14.324  0.1444E+02  0.1443E+02  0.1897E+03  0.1897E+03
     14.410  0.2586E+02  0.2587E+02  0.1919E+03  0.1919E+03
     14.497  0.1423E+02  0.1427E+02  0.1931E+03  0.1931E+03
     14.583  0.1540E+02  0.1536E+02  0.1945E+03  0.1945E+03
     14.669  0.2011E+02  0.2011E+02  0.1962E+03  0.1962E+03
     14.755  0.2119E+02  0.2119E+02  0.1980E+03  0.1980E+03
     14.841  0.2157E+02  0.2137E+02  0.1999E+03  0.1999E+03
     14.927  0.2445E+02  0.2459E+02  0.2020E+03  0.2020E+03
     15.014  0.2012E+02  0.2022E+02  0.2037E+03  0.2037E+03
     15.100  0.1462E+02  0.1460E+02  0.2050E+03  0.2050E+03
     15.186  0.2585E+02  0.2580E+02  0.2072E+03  0.2072E+03
     15.272  0.2437E+02  0.2440E+02  0.2093E+03  0.2093E+03
     15.358  0.1803E+02  0.1801E+02  0.2109E+03  0.2109E+03
     15.444  0.3093E+02  0.3091E+02  0.2135E+03  0.2135E+03
     15.531  0.2266E+02  0.2270E+02  0.2155E+03  0.2155E+03
     15.617  0.2568E+02  0.2566E+02  0.2177E+03  0.2177E+03
     15.703  0.2915E+02  0.2916E+02  0.2202E+03  0.2202E+03
     15.789  0.3020E+02  0.3015E+02  0.2228E+03  0.2228E+03
     15.875  0.3549E+02  0.3544E+02  0.2259E+03  0.2259E+03
     15.961  0.3969E+02  0.3976E+02  0.2293E+03  0.2293E+03
     16.048  0.1868E+02  0.1878E+02  0.2309E+03  0.2309E+03
     16.134  0.1550E+02  0.1542E+02  0.2322E+03  0.2322E+03
     16.220  0.2657E+02  0.2649E+02  0.2345E+03  0.2345E+03
     16.306  0.2857E+02  0.2870E+02  0.2370E+03  0.2370E+03
     16.392  0.2489E+02  0.2481E+02  0.2391E+03  0.2391E+03
     16.478  0.1928E+02  0.1934E+02  0.2408E+03  0.2408E+03
     16.565  0.1948E+02  0.1946E+02  0.2425E+03  0.2425E+03
     16.651  0.1616E+02  0.1617E+02  0.2439E+03  0.2439E+03
     16.737  0.1486E+02  0.1488E+02  0.2451E+03  0.2451E+03
     16.823  0.1853E+02  0.1846E+02  0.2467E+03  0.2467E+03
     16.909  0.1924E+02  0.1928E+02  0.2484E+03  0.2484E+03
     16.995  0.1665E+02  0.1669E+02  0.2498E+03  0.2498E+03
     17.082  0.1092E+02  0.1094E+02  0.2508E+03  0.2508E+03
     17.168  0.2579E+01  0.2623E+01  0.2510E+03  0.2510E+03
     17.254  0.7937E-02  0.8301E-02  0.2510E+03  0.2510E+03
     17.340  0.9953E-07  0.1073E-06  0.2510E+03  0.2510E+03
     17.426  0.3865E-14  0.5154E-14  0.2510E+03  0.2510E+03
     17.512  0.0000E+00  0.0000E+00  0.2510E+03  0.2510E+03
     17.599  0.1518E-09  0.1402E-09  0.2510E+03  0.2510E+03
     17.685  0.1359E-03  0.1290E-03  0.2510E+03  0.2510E+03
     17.771  0.4249E+00  0.4142E+00  0.2510E+03  0.2510E+03
     17.857  0.9293E+01  0.9235E+01  0.2518E+03  0.2518E+03
     17.943  0.1200E+02  0.1204E+02  0.2529E+03  0.2529E+03
     18.029  0.1770E+01  0.1794E+01  0.2530E+03  0.2530E+03
     18.116  0.9707E+01  0.9631E+01  0.2539E+03  0.2539E+03
     18.202  0.1249E+02  0.1256E+02  0.2549E+03  0.2549E+03
     18.288  0.1993E+01  0.1984E+01  0.2551E+03  0.2551E+03
     18.374  0.9265E+01  0.9256E+01  0.2559E+03  0.2559E+03
     18.460  0.8731E+01  0.8718E+01  0.2567E+03  0.2567E+03
     18.546  0.3931E+01  0.3979E+01  0.2570E+03  0.2570E+03
     18.633  0.1008E+00  0.9901E-01  0.2570E+03  0.2570E+03
     18.719  0.7497E+01  0.7399E+01  0.2577E+03  0.2576E+03
     18.805  0.2741E+02  0.2734E+02  0.2600E+03  0.2600E+03
     18.891  0.3343E+02  0.3344E+02  0.2629E+03  0.2629E+03
     18.977  0.3358E+02  0.3352E+02  0.2658E+03  0.2658E+03
     19.063  0.3355E+02  0.3364E+02  0.2687E+03  0.2687E+03
     19.150  0.2137E+02  0.2135E+02  0.2705E+03  0.2705E+03
     19.236  0.3110E+02  0.3109E+02  0.2732E+03  0.2732E+03
     19.322  0.3552E+02  0.3546E+02  0.2763E+03  0.2762E+03
     19.408  0.3347E+02  0.3355E+02  0.2791E+03  0.2791E+03
     19.494  0.2654E+02  0.2648E+02  0.2814E+03  0.2814E+03
     19.580  0.3754E+02  0.3757E+02  0.2847E+03  0.2847E+03
     19.667  0.2939E+02  0.2947E+02  0.2872E+03  0.2872E+03
     19.753  0.2952E+02  0.2963E+02  0.2897E+03  0.2897E+03
     19.839  0.3013E+02  0.2993E+02  0.2923E+03  0.2923E+03
     19.925  0.2655E+02  0.2749E+02  0.2946E+03  0.2947E+03
     20.011  0.1831E+02  0.1792E+02  0.2962E+03  0.2962E+03
     20.097  0.1649E+02  0.1806E+02  0.2976E+03  0.2978E+03
     20.184  0.2105E+02  0.1860E+02  0.2994E+03  0.2994E+03
     20.270  0.1670E+02  0.2262E+02  0.3009E+03  0.3013E+03
     20.356  0.1644E+02  0.1741E+02  0.3023E+03  0.3028E+03
     20.442  0.1011E+02  0.9143E+01  0.3032E+03  0.3036E+03
     20.528  0.8991E+01  0.4226E+01  0.3039E+03  0.3040E+03
     20.614  0.7013E+00  0.3174E-01  0.3040E+03  0.3040E+03
     20.701  0.3865E-03  0.1066E-05  0.3040E+03  0.3040E+03
     20.787  0.7640E-09  0.1147E-12  0.3040E+03  0.3040E+03
     20.873  0.0000E+00  0.0000E+00  0.3040E+03  0.3040E+03
     20.959  0.0000E+00  0.0000E+00  0.3040E+03  0.3040E+03
     21.045  0.0000E+00  0.0000E+00  0.3040E+03  0.3040E+03
     21.131  0.0000E+00  0.0000E+00  0.3040E+03  0.3040E+03
     21.218  0.0000E+00  0.0000E+00  0.3040E+03  0.3040E+03
     21.304  0.0000E+00  0.0000E+00  0.3040E+03  0.3040E+03
     21.390  0.0000E+00  0.0000E+00  0.3040E+03  0.3040E+03
     21.476  0.0000E+00  0.0000E+00  0.3040E+03  0.3040E+03
     21.562  0.0000E+00  0.0000E+00  0.3040E+03  0.3040E+03
     21.648  0.0000E+00  0.0000E+00  0.3040E+03  0.3040E+03
