  100  100    1    2
  0.1064800E+02  0.1021149E-08  0.1021149E-08  0.1021149E-08  0.5000000E-15
  1.000000000000000E-004
  CAR 
 unknown system                          
    400      1    304
 
  0.0000000E+00  0.0000000E+00  0.0000000E+00  0.1000000E+01
    1       -3.026627     -3.026194   1.000000   1.000000
    2       -1.936541     -1.936144   1.000000   1.000000
    3       -1.652881     -1.652452   1.000000   1.000000
    4       -1.627266     -1.626845   1.000000   1.000000
    5       -1.558843     -1.558430   1.000000   1.000000
    6       -1.506751     -1.506264   1.000000   1.000000
    7       -1.434293     -1.433824   1.000000   1.000000
    8       -0.578690     -0.578246   1.000000   1.000000
    9       -0.481365     -0.480923   1.000000   1.000000
   10       -0.413155     -0.412758   1.000000   1.000000
   11       -0.322400     -0.321975   1.000000   1.000000
   12       -0.286466     -0.286063   1.000000   1.000000
   13       -0.204368     -0.203951   1.000000   1.000000
   14       -0.155160     -0.154724   1.000000   1.000000
   15       -0.138824     -0.138380   1.000000   1.000000
   16       -0.067986     -0.067512   1.000000   1.000000
   17       -0.002972     -0.002541   1.000000   1.000000
   18        0.060975      0.061457   1.000000   1.000000
   19        0.096152      0.096587   1.000000   1.000000
   20        0.965195      0.965656   1.000000   1.000000
   21        1.051166      1.051583   1.000000   1.000000
   22        1.106323      1.106791   1.000000   1.000000
   23        1.147829      1.148264   1.000000   1.000000
   24        1.194327      1.194794   1.000000   1.000000
   25        1.252019      1.252450   1.000000   1.000000
   26        1.346946      1.347378   1.000000   1.000000
   27        1.411554      1.411961   1.000000   1.000000
   28        2.321220      2.321654   1.000000   1.000000
   29        2.380109      2.380519   1.000000   1.000000
   30        2.424108      2.424529   1.000000   1.000000
   31        2.484586      2.485005   1.000000   1.000000
   32        2.597500      2.597966   1.000000   1.000000
   33        2.611914      2.612365   1.000000   1.000000
   34        3.329133      3.329553   1.000000   1.000000
   35        3.468620      3.469085   1.000000   1.000000
   36        3.517921      3.518336   1.000000   1.000000
   37        3.566227      3.566626   1.000000   1.000000
   38        3.617311      3.617717   1.000000   1.000000
   39        3.645313      3.645716   1.000000   1.000000
   40        3.675344      3.675797   1.000000   1.000000
   41        3.709108      3.709518   1.000000   1.000000
   42        3.761889      3.762266   1.000000   1.000000
   43        3.771247      3.771673   1.000000   1.000000
   44        3.785052      3.785482   1.000000   1.000000
   45        3.808804      3.809223   1.000000   1.000000
   46        3.826666      3.827068   1.000000   1.000000
   47        3.866871      3.867284   1.000000   1.000000
   48        3.929104      3.929523   1.000000   1.000000
   49        3.933146      3.933553   1.000000   1.000000
   50        3.968602      3.969090   1.000000   1.000000
   51        3.998142      3.998618   1.000000   1.000000
   52        4.035476      4.035917   1.000000   1.000000
   53        4.093146      4.093663   1.000000   1.000000
   54        4.129100      4.129527   1.000000   1.000000
   55        4.173789      4.174264   1.000000   1.000000
   56        4.241916      4.242342   1.000000   1.000000
   57        4.303043      4.303666   1.000000   1.000000
   58        4.792704      4.793099   1.000000   1.000000
   59        4.850473      4.850930   1.000000   1.000000
   60        4.903932      4.904320   1.000000   1.000000
   61        4.948656      4.949092   1.000000   1.000000
   62        5.004225      5.004670   1.000000   1.000000
   63        5.038678      5.039054   1.000000   1.000000
   64        5.046678      5.047108   1.000000   1.000000
   65        5.092524      5.092963   1.000000   1.000000
   66        5.120202      5.120632   1.000000   1.000000
   67        5.141625      5.142097   1.000000   1.000000
   68        5.163830      5.164252   1.000000   1.000000
   69        5.192998      5.193394   1.000000   1.000000
   70        5.239881      5.240349   1.000000   1.000000
   71        5.305854      5.306262   1.000000   1.000000
   72        5.318480      5.318954   1.000000   1.000000
   73        5.328367      5.328760   1.000000   1.000000
   74        5.376881      5.377365   1.000000   1.000000
   75        5.389390      5.389830   1.000000   1.000000
   76        5.429913      5.430370   1.000000   1.000000
   77        5.513150      5.513610   1.000000   1.000000
   78        5.535452      5.535937   1.000000   1.000000
   79        5.598175      5.598553   1.000000   1.000000
   80        5.707140      5.707657   1.000000   1.000000
   81        5.804394      5.804964   1.000000   1.000000
   82        7.409441      7.409852   1.000000   1.000000
   83        7.497740      7.498150   1.000000   1.000000
   84        7.545535      7.545930   1.000000   1.000000
   85        7.574815      7.575179   1.000000   1.000000
   86        7.684012      7.684473   1.000000   1.000000
   87        7.699956      7.700309   1.000000   1.000000
   88        7.734393      7.734844   1.000000   1.000000
   89        7.776001      7.776491   1.000000   1.000000
   90        7.821640      7.822086   1.000000   1.000000
   91        7.831184      7.831674   1.000000   1.000000
   92        7.927803      7.928248   1.000000   1.000000
   93        7.955388      7.955914   1.000000   1.000000
   94        8.434558      8.434948   1.000000   1.000000
   95        8.519849      8.520258   1.000000   1.000000
   96        8.571159      8.571578   1.000000   1.000000
   97        8.651776      8.652160   1.000000   1.000000
   98        8.662098      8.662483   1.000000   1.000000
   99        8.727207      8.727664   1.000000   1.000000
  100        8.778515      8.778903   1.000000   1.000000
  101        8.795004      8.795471   1.000000   1.000000
  102        8.840823      8.841258   1.000000   1.000000
  103        8.869517      8.869958   1.000000   1.000000
  104        8.953066      8.953500   1.000000   1.000000
  105        8.969244      8.969701   1.000000   1.000000
  106        8.990301      8.990770   1.000000   1.000000
  107        9.014506      9.014946   1.000000   1.000000
  108        9.073307      9.073754   1.000000   1.000000
  109        9.118938      9.119409   1.000000   1.000000
  110        9.146397      9.146853   1.000000   1.000000
  111        9.174857      9.175296   1.000000   1.000000
  112        9.224370      9.224753   1.000000   1.000000
  113        9.252809      9.253294   1.000000   1.000000
  114        9.285447      9.285875   1.000000   1.000000
  115        9.319223      9.319681   1.000000   1.000000
  116        9.368139      9.368561   1.000000   1.000000
  117        9.399584      9.400084   1.000000   1.000000
  118        9.440723      9.441219   1.000000   1.000000
  119        9.487269      9.487736   1.000000   1.000000
  120        9.548382      9.548755   1.000000   1.000000
  121        9.651069      9.651489   1.000000   1.000000
  122        9.764526      9.765054   1.000000   1.000000
  123        9.817710      9.818165   1.000000   1.000000
  124       10.007935     10.008333   1.000000   1.000000
  125       10.093448     10.093823   1.000000   1.000000
  126       10.126130     10.126560   1.000000   1.000000
  127       10.170878     10.171308   1.000000   1.000000
  128       10.185133     10.185540   1.000000   1.000000
  129       10.217444     10.217872   1.000000   1.000000
  130       10.259675     10.260101   1.000000   1.000000
  131       10.294236     10.294713   1.000000   1.000000
  132       10.328609     10.329076   1.000000   1.000000
  133       10.420563     10.421029   1.000000   1.000000
  134       10.462099     10.462616   1.000000   1.000000
  135       10.527456     10.527862   1.000000   1.000000
  136       10.573005     10.573452   1.000000   1.000000
  137       10.586826     10.587276   1.000000   1.000000
  138       10.606014     10.606469   1.000000   1.000000
  139       10.670023     10.670428   1.000000   1.000000
  140       10.683397     10.683850   1.000000   1.000000
  141       10.718728     10.719116   1.000000   1.000000
  142       10.743245     10.743641   1.000000   1.000000
  143       10.824514     10.824990   1.000000   1.000000
  144       10.950179     10.950569   1.000000   1.000000
  145       10.999335     10.999850   1.000000   1.000000
  146       11.020860     11.021302   1.000000   1.000000
  147       11.055054     11.055540   1.000000   1.000000
  148       11.348824     11.349214   1.000000   1.000000
  149       11.430986     11.431426   1.000000   1.000000
  150       11.545540     11.546053   1.000000   1.000000
  151       11.563107     11.563523   1.000000   1.000000
  152       11.632703     11.633156   1.000000   1.000000
  153       11.657610     11.658024   1.000000   1.000000
  154       11.684488     11.684940   1.000000   1.000000
  155       11.699527     11.699973   1.000000   1.000000
  156       11.747248     11.747692   1.000000   1.000000
  157       11.762627     11.763110   1.000000   1.000000
  158       11.794928     11.795421   1.000000   1.000000
  159       11.806077     11.806514   1.000000   1.000000
  160       11.903989     11.904450   1.000000   1.000000
  161       11.945072     11.945593   1.000000   1.000000
  162       11.980130     11.980566   1.000000   1.000000
  163       12.017776     12.018242   1.000000   1.000000
  164       12.073267     12.073740   1.000000   1.000000
  165       12.125442     12.125904   1.000000   1.000000
  166       12.138498     12.138964   1.000000   1.000000
  167       12.145281     12.145695   1.000000   1.000000
  168       12.164905     12.165482   1.000000   1.000000
  169       12.233544     12.233975   1.000000   1.000000
  170       12.298508     12.298948   1.000000   1.000000
  171       12.414087     12.414484   1.000000   1.000000
  172       12.707095     12.707515   1.000000   1.000000
  173       12.938605     12.938999   1.000000   1.000000
  174       13.085841     13.086241   1.000000   1.000000
  175       13.163966     13.164434   1.000000   1.000000
  176       13.317616     13.318005   1.000000   1.000000
  177       13.324784     13.325283   1.000000   1.000000
  178       13.387186     13.387614   1.000000   1.000000
  179       13.453956     13.454381   1.000000   1.000000
  180       13.652347     13.652796   1.000000   1.000000
  181       13.733078     13.733460   1.000000   1.000000
  182       13.782423     13.782842   1.000000   1.000000
  183       13.811952     13.812358   1.000000   1.000000
  184       13.958211     13.958633   1.000000   1.000000
  185       14.060979     14.061375   1.000000   1.000000
  186       14.100272     14.100694   1.000000   1.000000
  187       14.176543     14.176948   1.000000   1.000000
  188       14.205952     14.206361   1.000000   1.000000
  189       14.223253     14.223690   1.000000   1.000000
  190       14.325856     14.326276   1.000000   1.000000
  191       14.361238     14.361677   1.000000   1.000000
  192       14.378288     14.378718   1.000000   1.000000
  193       14.441345     14.441802   1.000000   1.000000
  194       14.526347     14.526810   1.000000   1.000000
  195       14.588934     14.589377   1.000000   1.000000
  196       14.628819     14.629250   1.000000   1.000000
  197       14.700160     14.700561   0.999982   0.999982
  198       14.704495     14.704887   0.999970   0.999969
  199       14.794723     14.795222   0.928339   0.926390
  200       14.818937     14.820008   0.781911   0.772882
  201       14.867172     14.868676   0.279056   0.264946
  202       14.923917     14.924321   0.014240   0.013831
  203       14.929552     14.929968   0.009386   0.009094
  204       14.995777     14.996171   0.000012   0.000011
  205       15.071302     15.071727   0.000000   0.000000
  206       15.133542     15.133944   0.000000   0.000000
  207       15.173123     15.173517   0.000000   0.000000
  208       15.177770     15.178192   0.000000   0.000000
  209       15.245446     15.245897   0.000000   0.000000
  210       15.268560     15.268996   0.000000   0.000000
  211       15.355225     15.355644   0.000000   0.000000
  212       15.378983     15.379451   0.000000   0.000000
  213       15.415138     15.415586   0.000000   0.000000
  214       15.439360     15.439782   0.000000   0.000000
  215       15.471893     15.472284   0.000000   0.000000
  216       15.540003     15.540479   0.000000   0.000000
  217       15.569219     15.569632   0.000000   0.000000
  218       15.612245     15.612691   0.000000   0.000000
  219       15.645085     15.645478   0.000000   0.000000
  220       15.679140     15.679527   0.000000   0.000000
  221       15.705714     15.706090   0.000000   0.000000
  222       15.767284     15.767727   0.000000   0.000000
  223       15.780840     15.781224   0.000000   0.000000
  224       15.795068     15.795464   0.000000   0.000000
  225       15.843901     15.844339   0.000000   0.000000
  226       15.873765     15.874214   0.000000   0.000000
  227       15.893470     15.893931   0.000000   0.000000
  228       15.910518     15.910964   0.000000   0.000000
  229       15.921595     15.922046   0.000000   0.000000
  230       15.966852     15.967310   0.000000   0.000000
  231       16.007768     16.008188   0.000000   0.000000
  232       16.109654     16.110149   0.000000   0.000000
  233       16.137161     16.137646   0.000000   0.000000
  234       16.206493     16.206901   0.000000   0.000000
  235       16.228377     16.228771   0.000000   0.000000
  236       16.235008     16.235451   0.000000   0.000000
  237       16.256278     16.256793   0.000000   0.000000
  238       16.358783     16.359180   0.000000   0.000000
  239       16.373865     16.374277   0.000000   0.000000
  240       16.385069     16.385513   0.000000   0.000000
  241       16.459639     16.460053   0.000000   0.000000
  242       16.526715     16.527220   0.000000   0.000000
  243       16.556531     16.557002   0.000000   0.000000
  244       16.632140     16.632576   0.000000   0.000000
  245       16.684531     16.684973   0.000000   0.000000
  246       16.765786     16.766260   0.000000   0.000000
  247       16.819735     16.820274   0.000000   0.000000
  248       16.846302     16.846794   0.000000   0.000000
  249       16.919333     16.919859   0.000000   0.000000
  250       16.965003     16.965510   0.000000   0.000000
  251       17.054526     17.054984   0.000000   0.000000
  252       17.834248     17.834660   0.000000   0.000000
  253       17.902974     17.903430   0.000000   0.000000
  254       18.099490     18.099882   0.000000   0.000000
  255       18.147204     18.147629   0.000000   0.000000
  256       18.331540     18.331984   0.000000   0.000000
  257       18.445707     18.446107   0.000000   0.000000
  258       18.720972     18.721417   0.000000   0.000000
  259       18.754385     18.754832   0.000000   0.000000
  260       18.791398     18.791837   0.000000   0.000000
  261       18.824879     18.825305   0.000000   0.000000
  262       18.842619     18.843053   0.000000   0.000000
  263       18.877170     18.877592   0.000000   0.000000
  264       18.907478     18.907916   0.000000   0.000000
  265       18.962470     18.962913   0.000000   0.000000
  266       18.968517     18.968968   0.000000   0.000000
  267       18.988903     18.989298   0.000000   0.000000
  268       19.011579     19.012040   0.000000   0.000000
  269       19.050043     19.050515   0.000000   0.000000
  270       19.104416     19.104901   0.000000   0.000000
  271       19.160353     19.160768   0.000000   0.000000
  272       19.185559     19.185996   0.000000   0.000000
  273       19.197432     19.197886   0.000000   0.000000
  274       19.255171     19.255607   0.000000   0.000000
  275       19.277823     19.278302   0.000000   0.000000
  276       19.308723     19.309144   0.000000   0.000000
  277       19.325109     19.325546   0.000000   0.000000
  278       19.350436     19.350836   0.000000   0.000000
  279       19.372527     19.372977   0.000000   0.000000
  280       19.423285     19.423754   0.000000   0.000000
  281       19.475790     19.476177   0.000000   0.000000
  282       19.503611     19.504023   0.000000   0.000000
  283       19.522304     19.522672   0.000000   0.000000
  284       19.532689     19.533177   0.000000   0.000000
  285       19.581041     19.581293   0.000000   0.000000
  286       19.605844     19.606333   0.000000   0.000000
  287       19.627476     19.627848   0.000000   0.000000
  288       19.690487     19.690589   0.000000   0.000000
  289       19.707904     19.708084   0.000000   0.000000
  290       19.746390     19.746435   0.000000   0.000000
  291       19.782397     19.783358   0.000000   0.000000
  292       19.796228     19.793757   0.000000   0.000000
  293       19.857887     19.860301   0.000000   0.000000
  294       19.868320     19.869234   0.000000   0.000000
  295       19.917991     19.911699   0.000000   0.000000
  296       19.965322     19.964067   0.000000   0.000000
  297       20.030376     20.028569   0.000000   0.000000
  298       20.094016     20.084936   0.000000   0.000000
  299       20.141777     20.129865   0.000000   0.000000
  300       20.179517     20.198221   0.000000   0.000000
  301       20.259910     20.225034   0.000000   0.000000
  302       20.291291     20.279225   0.000000   0.000000
  303       20.371424     20.320369   0.000000   0.000000
  304       20.473378     20.429994   0.000000   0.000000
