       N       E                     dE             d eps       ncg     rms          rms(c)
RMM:   1     0.135510357018E+04    0.13551E+04   -0.74376E+04   608   0.513E+02
RMM:   2    -0.762176917023E+01   -0.13627E+04   -0.13047E+04   608   0.119E+02
RMM:   3    -0.292762933130E+03   -0.28514E+03   -0.27807E+03   608   0.487E+01
RMM:   4    -0.371398005036E+03   -0.78635E+02   -0.66452E+02   608   0.278E+01
RMM:   5    -0.396264552512E+03   -0.24867E+02   -0.20331E+02   608   0.125E+01
RMM:   6    -0.405440554835E+03   -0.91760E+01   -0.70157E+01   608   0.734E+00
RMM:   7    -0.408744752689E+03   -0.33042E+01   -0.27047E+01   608   0.368E+00
RMM:   8    -0.410062089168E+03   -0.13173E+01   -0.10721E+01   608   0.225E+00
RMM:   9    -0.410808134429E+03   -0.74605E+00   -0.68213E+00  1498   0.120E+00
RMM:  10    -0.410900491536E+03   -0.92357E-01   -0.45674E-01  1419   0.225E-01
RMM:  11    -0.410902213735E+03   -0.17222E-02   -0.12346E-02  1345   0.391E-02
RMM:  12    -0.410902225151E+03   -0.11417E-04   -0.11861E-04  1100   0.529E-03    0.597E+01
RMM:  13    -0.419005008146E+03   -0.81028E+01   -0.79638E+00  1363   0.317E+00    0.358E+01
RMM:  14    -0.427160155585E+03   -0.81551E+01   -0.47227E+00  1337   0.261E+00    0.170E+01
RMM:  15    -0.427624856792E+03   -0.46470E+00   -0.12669E+00  1367   0.112E+00    0.355E+00
RMM:  16    -0.427764527870E+03   -0.13967E+00   -0.29492E-01  1403   0.647E-01    0.246E+00
RMM:  17    -0.427867365856E+03   -0.10284E+00   -0.10240E-01  1449   0.332E-01    0.130E+00
RMM:  18    -0.427907911641E+03   -0.40546E-01   -0.36210E-02  1403   0.207E-01    0.543E-01
RMM:  19    -0.427913545046E+03   -0.56334E-02   -0.10319E-02  1416   0.116E-01    0.265E-01
RMM:  20    -0.427915622812E+03   -0.20778E-02   -0.42248E-03  1426   0.742E-02    0.136E-01
RMM:  21    -0.427916292634E+03   -0.66982E-03   -0.13089E-03  1439   0.410E-02    0.834E-02
RMM:  22    -0.427916628411E+03   -0.33578E-03   -0.63798E-04  1419   0.297E-02    0.500E-02
RMM:  23    -0.427916783235E+03   -0.15482E-03   -0.40484E-04  1407   0.240E-02    0.279E-02
RMM:  24    -0.427916828795E+03   -0.45560E-04   -0.15721E-04  1437   0.146E-02    0.141E-02
RMM:  25    -0.427916837344E+03   -0.85488E-05   -0.43114E-05  1266   0.750E-03
   1 F= -.42791684E+03 E0= -.42788753E+03  d E =-.586102E-01  mag=     0.0160
