 vasp.5.4.4.18Apr17-6-g9f103f2a35 (build Sep 16 2020 16:20:45) complex          
  
 executed on             LinuxIFC date 2021.08.09  15:43:10
 running on   16 total cores
 distrk:  each k-point on   16 cores,    1 groups
 distr:  one band on NCORES_PER_BAND=   1 cores,   16 groups


--------------------------------------------------------------------------------------------------------


 INCAR:
 POTCAR:    PAW_PBE Si 05Jan2001                  

 ----------------------------------------------------------------------------- 
|                                                                             |
|           W    W    AA    RRRRR   N    N  II  N    N   GGGG   !!!           |
|           W    W   A  A   R    R  NN   N  II  NN   N  G    G  !!!           |
|           W    W  A    A  R    R  N N  N  II  N N  N  G       !!!           |
|           W WW W  AAAAAA  RRRRR   N  N N  II  N  N N  G  GGG   !            |
|           WW  WW  A    A  R   R   N   NN  II  N   NN  G    G                |
|           W    W  A    A  R    R  N    N  II  N    N   GGGG   !!!           |
|                                                                             |
|      For optimal performance we recommend to set                            |
|        NCORE= 4 - approx SQRT( number of cores)                             |
|      NCORE specifies how many cores store one orbital (NPAR=cpu/NCORE).     |
|      This setting can  greatly improve the performance of VASP for DFT.     |
|      The default,   NCORE=1            might be grossly inefficient         |
|      on modern multi-core architectures or massively parallel machines.     |
|      Do your own testing !!!!                                               |
|      Unfortunately you need to use the default for GW and RPA calculations. |
|      (for HF NCORE is supported but not extensively tested yet)             |
|                                                                             |
 ----------------------------------------------------------------------------- 

 POTCAR:    PAW_PBE Si 05Jan2001                  
   SHA256 =  79d9987ad8750f624c4d6acb2a16d13abf6a777132adc04dc6c8399be72b42bb Si
   COPYR  = (c) Copyright 05Jan2001 Georg Kresse                                
   COPYR  = This file is part of the software VASP. Any use, copying, and all ot
   COPYR  = If you do not have a valid VASP license, you may not use, copy or di
   VRHFIN =Si: s2p2                                                             
   LEXCH  = PE                                                                  
   EATOM  =   103.0669 eV,    7.5752 Ry                                         
                                                                                
   TITEL  = PAW_PBE Si 05Jan2001                                                
   LULTRA =        F    use ultrasoft PP ?                                      
   IUNSCR =        1    unscreen: 0-lin 1-nonlin 2-no                           
   RPACOR =    1.500    partial core radius                                     
   POMASS =   28.085; ZVAL   =    4.000    mass and valenz                      
   RCORE  =    1.900    outmost cutoff radius                                   
   RWIGS  =    2.480; RWIGS  =    1.312    wigner-seitz radius (au A)           
   ENMAX  =  245.345; ENMIN  =  184.009 eV                                      
   ICORE  =        2    local potential                                         
   LCOR   =        T    correct aug charges                                     
   LPAW   =        T    paw PP                                                  
   EAUG   =  322.069                                                            
   DEXC   =    0.000                                                            
   RMAX   =    1.950    core radius for proj-oper                               
   RAUG   =    1.300    factor for augmentation sphere                          
   RDEP   =    1.993    radius for radial grids                                 
   RDEPT  =    1.837    core radius for aug-charge                              
                                                                                
   Atomic configuration                                                         
    6 entries                                                                   
     n  l   j            E        occ.                                          
     1  0  0.50     -1785.8828   2.0000                                         
     2  0  0.50      -139.4969   2.0000                                         
     2  1  1.50       -95.5546   6.0000                                         
     3  0  0.50       -10.8127   2.0000                                         
     3  1  0.50        -4.0811   2.0000                                         
     3  2  1.50        -4.0817   0.0000                                         
   Description                                                                  
     l       E           TYP  RCUT    TYP  RCUT                                 
     0    -10.8127223     23  1.900                                             
     0     -7.6451159     23  1.900                                             
     1     -4.0811372     23  1.900                                             
     1      2.4879257     23  1.900                                             
     2     -4.0817478      7  1.900                                             
  local pseudopotential read in
  partial core-charges read in
  partial kinetic energy density read in
  atomic valenz-charges read in
  non local Contribution for L=           0  read in
    real space projection operators read in
  non local Contribution for L=           0  read in
    real space projection operators read in
  non local Contribution for L=           1  read in
    real space projection operators read in
  non local Contribution for L=           1  read in
    real space projection operators read in
    PAW grid and wavefunctions read in
 
   number of l-projection  operators is LMAX  =           4
   number of lm-projection operators is LMMAX =           8
 
 Optimization of the real space projectors (new method)

 maximal supplied QI-value         = 19.84
 optimisation between [QCUT,QGAM] = [  7.94, 15.87] = [ 17.64, 70.56] Ry 
 Optimized for a Real-space Cutoff    1.57 Angstroem

   l    n(q)    QCUT    max X(q) W(low)/X(q) W(high)/X(q)  e(spline) 
   0      7     7.937   159.560    0.16E-03    0.38E-03    0.13E-06
   0      7     7.937   115.863    0.15E-03    0.37E-03    0.13E-06
   1      7     7.937    88.339    0.42E-03    0.67E-03    0.13E-06
   1      7     7.937    48.592    0.41E-03    0.65E-03    0.13E-06
  PAW_PBE Si 05Jan2001                  :
 energy of atom  1       EATOM= -103.0669
 kinetic energy error for atom=    0.0056 (will be added to EATOM!!)
 
 
 POSCAR: Si                                      
  positions in cartesian coordinates
  No initial velocities read in
 exchange correlation table for  LEXCH =        8
   RHO(1)=    0.500       N(1)  =     2000
   RHO(2)=  100.500       N(2)  =     4000
 


--------------------------------------------------------------------------------------------------------


 ion  position               nearest neighbor table
   1  0.310  0.589  0.361-  60 2.24  12 2.29  71 2.32  43 2.36  56 2.37 100 2.39  96 2.50  58 2.50
                            44 2.52  32 2.77  10 2.93  93 3.04
   2  0.615  0.102  0.506-  72 2.36  75 2.37  36 2.39  19 2.41  42 2.41  97 2.42  23 2.48  57 2.50
                            48 2.52  15 2.56  47 2.60
   3  0.144  0.546  0.783-   6 2.18  68 2.24  77 2.30  65 2.30  63 2.35  82 2.39  71 2.39  61 2.40
                            16 2.60  52 2.64  86 2.72  83 3.04  81 3.12  34 3.12
   4  0.713  0.523  0.478-  69 2.24  72 2.26  95 2.37  89 2.38  79 2.40  21 2.46  44 2.49  94 2.57
                            30 2.69  56 2.70  13 2.97
   5  0.619  0.850  0.886-  91 2.29   7 2.37   9 2.38  45 2.39  42 2.41  20 2.47  49 2.47  62 2.50
                            14 2.55  51 2.55  74 2.56  24 2.60
   6  0.008  0.710  0.798-   3 2.18  24 2.30  52 2.30  39 2.32  50 2.38  74 2.40  61 2.43  34 2.56
                            86 2.68  69 2.68  77 2.69  22 2.71  68 2.92
   7  0.528  0.636  0.879-   8 2.31  89 2.32  45 2.36   5 2.37  63 2.41  93 2.45   9 2.46  84 2.48
                            65 2.49  51 2.51  74 2.63  90 2.82
   8  0.670  0.463  0.916-  84 2.30   7 2.31  26 2.34  66 2.35  90 2.38  21 2.39  86 2.41  40 2.48
                            29 2.51  74 2.53  33 2.55   9 2.72  89 2.99
   9  0.694  0.695  0.044-  62 2.28  40 2.37   5 2.38  74 2.41  98 2.42   7 2.46  66 2.48  14 2.49
                            39 2.50  93 2.66  95 2.67   8 2.72
  10  0.035  0.551  0.429-  52 2.29  71 2.31  78 2.34  68 2.35  73 2.35  32 2.36  13 2.45  58 2.60
                            69 2.73   1 2.93  95 3.07
  11  0.934  0.205  0.258-  94 2.20  25 2.22  99 2.32  38 2.37  47 2.39  70 2.41  78 2.43  53 2.43
                            57 2.58  33 2.71  32 2.94  18 3.05
  12  0.385  0.446  0.205-   1 2.29  84 2.39  67 2.42  81 2.45  93 2.45  79 2.49 100 2.51  54 2.52
                            66 2.54  96 2.58  44 2.71  32 2.75
  13  0.891  0.742  0.407-  95 2.23  69 2.24  19 2.36  22 2.43  10 2.45  73 2.54  27 2.58  98 2.59
                            18 2.63  58 2.66  52 2.73   4 2.97
  14  0.521  0.853  0.115-  93 2.18  51 2.28  98 2.36  43 2.41  97 2.43  80 2.48   9 2.49   5 2.55
                            64 2.58  49 2.62  85 2.73  62 2.79
  15  0.798  0.046  0.668-  75 2.27  47 2.30  20 2.34  22 2.37  28 2.39  24 2.44  41 2.44  42 2.47
                            91 2.54   2 2.56  19 2.74  46 2.76  29 3.10
  16  0.046  0.319  0.843-  86 2.25  35 2.27  41 2.41  37 2.41  29 2.46  28 2.50  82 2.57  38 2.57
                             3 2.60  83 2.63  68 2.64  77 2.75  81 2.77
  17  0.204  0.898  0.571-  60 2.30  55 2.33  52 2.33  76 2.38  46 2.46  50 2.48  61 2.48  87 2.50
                            18 2.58  36 2.59  58 2.60  22 2.76
  18  0.024  0.962  0.406-  27 2.31  22 2.36  47 2.36  58 2.37  53 2.40  70 2.42  46 2.50  25 2.57
                            17 2.58  76 2.60  13 2.63  19 3.01  11 3.05
  19  0.736  0.909  0.445-  98 2.24  30 2.34  13 2.36  25 2.37  20 2.41   2 2.41  97 2.51  47 2.53
                            22 2.61  15 2.74  18 3.01  36 3.04
  20  0.721  0.831  0.667-  24 2.27  15 2.34  22 2.35  30 2.37  19 2.41  74 2.41  69 2.42  42 2.42
                             5 2.47  89 2.57  45 2.70
  21  0.746  0.429  0.697-  86 2.27  89 2.31  28 2.34  75 2.36   8 2.39  72 2.41  90 2.41   4 2.46
                            29 2.55  68 2.63  69 2.63  74 2.77
  22  0.936  0.873  0.600-  52 2.31  20 2.35  18 2.36  15 2.37  13 2.43  24 2.44  69 2.50  46 2.51
                            19 2.61  50 2.62   6 2.71  17 2.76  47 2.96
  23  0.435  0.176  0.360-  48 2.22  97 2.29  96 2.45  54 2.45   2 2.48  67 2.51  79 2.52  87 2.52
                            64 2.54  76 2.56  57 2.64  36 2.98
  24  0.865  0.882  0.828-  20 2.27   6 2.30  74 2.37  91 2.41  41 2.43  22 2.44  15 2.44  39 2.48
                            50 2.49  62 2.51   5 2.60  31 2.66
  25  0.826  0.017  0.260-  11 2.22  99 2.37  57 2.37  19 2.37  47 2.38  62 2.41  98 2.44  80 2.45
                            27 2.52  18 2.57  97 2.93  70 2.99
  26  0.592  0.248  0.926-  29 2.33   8 2.34  67 2.36  84 2.37  75 2.39  90 2.40  91 2.41  33 2.46
                            49 2.49  92 2.53  59 2.54  80 2.74
  27  0.002  0.852  0.209-  73 2.25  58 2.28  18 2.31  31 2.33  70 2.39  39 2.45  25 2.52  13 2.58
                            85 2.66  62 2.73  34 2.88  98 3.11
  28  0.895  0.258  0.661-  21 2.34  29 2.34  78 2.37  15 2.39  72 2.41  68 2.41  47 2.46  75 2.49
                            46 2.49  41 2.50  16 2.50  83 2.81  86 3.00
  29  0.813  0.268  0.875-  41 2.32  26 2.33  86 2.34  33 2.34  28 2.34  75 2.42  91 2.44  16 2.46
                            99 2.49   8 2.51  21 2.55  38 2.92  15 3.10
  30  0.580  0.750  0.500-  89 2.28  44 2.31  36 2.33  19 2.34  20 2.37  60 2.49  45 2.57  43 2.60
                             4 2.69  56 2.82  98 2.91  97 3.11  69 3.12
  31  0.029  0.965  0.012-  99 2.27  88 2.33  27 2.33  35 2.34  70 2.37  41 2.38  34 2.39  50 2.44
                            39 2.52  62 2.62  24 2.66  85 3.02
  32  0.121  0.424  0.256-  38 2.34  10 2.36  96 2.43 100 2.44  73 2.46  54 2.46  81 2.58  78 2.69
                            12 2.75   1 2.77  53 2.92  11 2.94  77 3.01
  33  0.754  0.309  0.092-  94 2.29  66 2.30  99 2.32  29 2.34  40 2.38  38 2.41  57 2.44  26 2.46
                            67 2.51   8 2.55  11 2.71  80 2.76
  34  0.158  0.772  0.988-  85 2.28  65 2.32  39 2.34  51 2.35 100 2.36  31 2.39  61 2.40  88 2.49
                            77 2.54   6 2.56  50 2.62  27 2.88   3 3.12  73 3.14
  35  0.115  0.178  0.001-  16 2.27  88 2.33  31 2.34  38 2.37  37 2.44  70 2.44  41 2.45  59 2.45
                            81 2.48  99 2.59  54 2.64
  36  0.451  0.936  0.526-  30 2.33  42 2.34   2 2.39  87 2.42  97 2.45  60 2.46  76 2.47  45 2.48
                            17 2.59  55 2.63  43 2.66  23 2.98  19 3.04
  37  0.203  0.154  0.780-  55 2.31  92 2.32  83 2.32  46 2.35  82 2.37  16 2.41  35 2.44  88 2.47
                            87 2.47  50 2.57  41 2.59  59 2.61
  38  0.987  0.352  0.086-  40 2.26  77 2.30  32 2.34  35 2.37  11 2.37  33 2.41  81 2.57  16 2.57
                            99 2.66  94 2.80  86 2.86  29 2.92
  39  0.933  0.737  0.010-  62 2.29   6 2.32  34 2.34  77 2.40  27 2.45  40 2.45  73 2.47  24 2.48
                             9 2.50  31 2.52  74 2.56  86 3.10
  40  0.846  0.522  0.072-  38 2.26  95 2.31  86 2.33   9 2.37  77 2.38  33 2.38  66 2.42  39 2.45
                            73 2.46   8 2.48  94 2.73  74 2.99
  41  0.961  0.099  0.834-  29 2.32  50 2.35  31 2.38  16 2.41  24 2.43  15 2.44  35 2.45  99 2.45
                            46 2.47  28 2.50  37 2.59  91 2.62
  42  0.564  0.002  0.714-  36 2.34  45 2.38  92 2.39  75 2.39   5 2.41   2 2.41  20 2.42  55 2.47
                            15 2.47  49 2.51  91 2.55
  43  0.411  0.791  0.314-  44 2.29  85 2.29   1 2.36  14 2.41  97 2.42  60 2.44  76 2.46  93 2.59
                            30 2.60  36 2.66  58 2.76  98 3.06
  44  0.552  0.617  0.320-  43 2.29  30 2.31  66 2.38  79 2.40  95 2.41   4 2.49  93 2.52   1 2.52
                            56 2.58  98 2.62  12 2.71
  45  0.465  0.791  0.720-  55 2.31   7 2.36  42 2.38  61 2.38   5 2.39  60 2.41  89 2.45  63 2.48
                            36 2.48  51 2.49  30 2.57  20 2.70
  46  0.060  0.085  0.614-  37 2.35  83 2.45  17 2.46  41 2.47  50 2.48  28 2.49  18 2.50  22 2.51
                            47 2.51  53 2.53  87 2.59  15 2.76  78 3.10
  47  0.866  0.120  0.466-  15 2.30  72 2.36  18 2.36  25 2.38  11 2.39  78 2.44  28 2.46  46 2.51
                            19 2.53   2 2.60  57 2.70  53 2.83  22 2.96
  48  0.462  0.292  0.542-  56 2.20  23 2.22  96 2.32  87 2.37  79 2.38  92 2.43  90 2.45   2 2.52
                            75 2.71  72 2.77
  49  0.473  0.035  0.940-  59 2.22  88 2.34  64 2.37  51 2.40   5 2.47  26 2.49  80 2.50  92 2.51
                            42 2.51  91 2.54  55 2.55  14 2.62  67 3.13
  50  0.102  0.924  0.789-  61 2.18  41 2.35  55 2.37   6 2.38  88 2.41  31 2.44  17 2.48  46 2.48
                            24 2.49  37 2.57  22 2.62  34 2.62  52 3.07
  51  0.379  0.820  0.947-  88 2.26  14 2.28  34 2.35  61 2.40  49 2.40  93 2.40  65 2.42  45 2.49
                             7 2.51   5 2.55  55 2.57  85 2.59
  52  0.085  0.703  0.586-  71 2.23  10 2.29   6 2.30  22 2.31  17 2.33  69 2.49  58 2.49  61 2.50
                            68 2.61   3 2.64  60 2.67  13 2.73  50 3.07
  53  0.128  0.173  0.392-  70 2.22  78 2.33  54 2.40  18 2.40  96 2.42  11 2.43  76 2.47  46 2.53
                            87 2.58  83 2.64  47 2.83  32 2.92
  54  0.260  0.233  0.207-  64 2.23  70 2.34  53 2.40  81 2.43  23 2.45  96 2.46  32 2.46  59 2.51
                            12 2.52  35 2.64  67 2.73  76 3.03
  55  0.327  0.968  0.750-  45 2.31  37 2.31  88 2.31  61 2.31  17 2.33  50 2.37  92 2.45  87 2.47
                            42 2.47  49 2.55  51 2.57  36 2.63
  56  0.453  0.506  0.524-  48 2.20  63 2.31   1 2.37  89 2.38  79 2.41  71 2.44  60 2.49  44 2.58
                            96 2.61   4 2.70  90 2.70  30 2.82
  57  0.684  0.197  0.291-  80 2.28  94 2.30  67 2.34  79 2.36  25 2.37  72 2.43  33 2.44   2 2.50
                            11 2.58  97 2.58  23 2.64  47 2.70
  58  0.145  0.769  0.359-  27 2.28  18 2.37  85 2.48  73 2.48  52 2.49   1 2.50  76 2.55  17 2.60
                            10 2.60  13 2.66  60 2.70 100 2.76  43 2.76
  59  0.351  0.211  0.980-  49 2.22  81 2.27  64 2.36  82 2.42  88 2.44  67 2.45  92 2.45  35 2.45
                            84 2.47  54 2.51  26 2.54  37 2.61
  60  0.341  0.722  0.532-   1 2.24  17 2.30  71 2.33  45 2.41  43 2.44  36 2.46  30 2.49  56 2.49
                            63 2.50  61 2.65  52 2.67  58 2.70
  61  0.238  0.760  0.768-  50 2.18  55 2.31  63 2.37  45 2.38   3 2.40  34 2.40  51 2.40   6 2.43
                            17 2.48  52 2.50  65 2.50  60 2.65  88 3.11
  62  0.785  0.899  0.060-   9 2.28  39 2.29  98 2.30  91 2.32  80 2.33  25 2.41  99 2.42   5 2.50
                            24 2.51  31 2.62  27 2.73  14 2.79
  63  0.364  0.571  0.722-  71 2.25  56 2.31   3 2.35  65 2.36  61 2.37  82 2.39   7 2.41  90 2.45
                            45 2.48  60 2.50  89 2.57
  64  0.376  0.057  0.150-  54 2.23  85 2.32  59 2.36  49 2.37  88 2.42  97 2.49  67 2.53  23 2.54
                            76 2.54  14 2.58  80 2.72  70 2.77
  65  0.296  0.598  0.941- 100 2.28   3 2.30  93 2.31  34 2.32  63 2.36  81 2.41  51 2.42  84 2.42
                             7 2.49  61 2.50  77 2.50  82 2.72
  66  0.622  0.485  0.141-  33 2.30   8 2.35  44 2.38  84 2.40  40 2.42  95 2.47   9 2.48  79 2.49
                            67 2.53  12 2.54  93 2.55  94 2.74
  67  0.519  0.260  0.144-  57 2.34  80 2.35  26 2.36  12 2.42  59 2.45  84 2.47  33 2.51  23 2.51
                            66 2.53  64 2.53  79 2.55  54 2.73  49 3.13
  68  0.994  0.471  0.641-   3 2.24  69 2.33  10 2.35  78 2.38  86 2.39  28 2.41  83 2.45  71 2.51
                            52 2.61  21 2.63  16 2.64   6 2.92
  69  0.850  0.644  0.599-  13 2.24   4 2.24  68 2.33  20 2.42  74 2.44  52 2.49  22 2.50  89 2.60
                            21 2.63   6 2.68  10 2.73  30 3.12  86 3.13
  70  0.111  0.059  0.208-  53 2.22  54 2.34  31 2.37  27 2.39  11 2.41  18 2.42  35 2.44  76 2.45
                            85 2.55  64 2.77  99 2.93  88 2.97  25 2.99
  71  0.218  0.532  0.561-  52 2.23  63 2.25  10 2.31   1 2.32  60 2.33   3 2.39  56 2.44  96 2.46
                            83 2.48  68 2.51  82 3.15
  72  0.729  0.303  0.499-   4 2.26   2 2.36  47 2.36  79 2.37  94 2.37  75 2.38  21 2.41  28 2.41
                            57 2.43  78 2.58  48 2.77
  73  0.006  0.632  0.215- 100 2.24  27 2.25  10 2.35  95 2.36  32 2.46  40 2.46  39 2.47  58 2.48
                            77 2.52  13 2.54  34 3.14
  74  0.779  0.666  0.826-  86 2.27  24 2.37   6 2.40   9 2.41  20 2.41  69 2.44  89 2.46   8 2.53
                             5 2.56  39 2.56   7 2.63  21 2.77  40 2.99
  75  0.659  0.216  0.703-  15 2.27  90 2.33  21 2.36   2 2.37  72 2.38  42 2.39  26 2.39  29 2.42
                            92 2.45  28 2.49  48 2.71  91 2.73
  76  0.275  0.983  0.365-  85 2.38  17 2.38  70 2.45  43 2.46  53 2.47  36 2.47  87 2.48  64 2.54
                            58 2.55  23 2.56  18 2.60  97 2.82  54 3.03
  77  0.064  0.542  0.993-   3 2.30  38 2.30  86 2.31  81 2.33 100 2.35  40 2.38  39 2.40  65 2.50
                            73 2.52  34 2.54   6 2.69  16 2.75  32 3.01
  78  0.977  0.331  0.456-  53 2.33  10 2.34  28 2.37  68 2.38  94 2.38  11 2.43  47 2.44  83 2.50
                            72 2.58  32 2.69  46 3.10
  79  0.566  0.385  0.356-  57 2.36  72 2.37  48 2.38  44 2.40   4 2.40  56 2.41  66 2.49  12 2.49
                            23 2.52  67 2.55  94 2.60  96 2.98
  80  0.640  0.065  0.117-  57 2.28  91 2.32  62 2.33  97 2.35  67 2.35  25 2.45  14 2.48  49 2.50
                            99 2.53  64 2.72  26 2.74  33 2.76  98 3.00
  81  0.229  0.389  0.030-  59 2.27  77 2.33  82 2.35  84 2.41  65 2.41  54 2.43  12 2.45  35 2.48
                            38 2.57  32 2.58 100 2.61  16 2.77   3 3.12
  82  0.291  0.366  0.810-  81 2.35  92 2.36  37 2.37  63 2.39   3 2.39  90 2.42  59 2.42  83 2.49
                            84 2.52  16 2.57  65 2.72  71 3.15
  83  0.162  0.302  0.614-  37 2.32  96 2.42  87 2.43  46 2.45  68 2.45  71 2.48  82 2.49  78 2.50
                            16 2.63  53 2.64  28 2.81   3 3.04
  84  0.457  0.429  0.982-   8 2.30  26 2.37  12 2.39  66 2.40  81 2.41  65 2.42  90 2.47  59 2.47
                            67 2.47   7 2.48  82 2.52  93 2.62
  85  0.259  0.863  0.166-  34 2.28  43 2.29  64 2.32  76 2.38  58 2.48  88 2.52  70 2.55 100 2.57
                            51 2.59  27 2.66  14 2.73  93 2.91  31 3.02
  86  0.896  0.480  0.853-  16 2.25  74 2.27  21 2.27  77 2.31  40 2.33  29 2.34  68 2.39   8 2.41
                             6 2.68   3 2.72  38 2.86  28 3.00  39 3.10  69 3.13
  87  0.306  0.120  0.564-  48 2.37  92 2.38  36 2.42  83 2.43  55 2.47  37 2.47  76 2.48  17 2.50
                            23 2.52  53 2.58  46 2.59  96 2.82
  88  0.248  0.997  0.959-  51 2.26  55 2.31  31 2.33  35 2.33  49 2.34  50 2.41  64 2.42  59 2.44
                            37 2.47  34 2.49  85 2.52  70 2.97  61 3.11
  89  0.608  0.606  0.668-  30 2.28  21 2.31   7 2.32   4 2.38  56 2.38  45 2.45  74 2.46  90 2.52
                            63 2.57  20 2.57  69 2.60   8 2.99
  90  0.520  0.390  0.753-  92 2.29  75 2.33   8 2.38  26 2.40  21 2.41  82 2.42  48 2.45  63 2.45
                            84 2.47  89 2.52  56 2.70   7 2.82
  91  0.719  0.050  0.904-   5 2.29  62 2.32  80 2.32  99 2.34  24 2.41  26 2.41  29 2.44  49 2.54
                            15 2.54  42 2.55  41 2.62  75 2.73
  92  0.425  0.187  0.753-  90 2.29  37 2.32  82 2.36  87 2.38  42 2.39  48 2.43  59 2.45  75 2.45
                            55 2.45  49 2.51  26 2.53
  93  0.443  0.655  0.102-  14 2.18  65 2.31  51 2.40 100 2.41   7 2.45  12 2.45  44 2.52  66 2.55
                            43 2.59  84 2.62   9 2.66  85 2.91   1 3.04
  94  0.814  0.380  0.297-  11 2.20  33 2.29  57 2.30  95 2.35  72 2.37  78 2.38   4 2.57  79 2.60
                            40 2.73  66 2.74  38 2.80
  95  0.784  0.607  0.273-  13 2.23  98 2.26  40 2.31  94 2.35  73 2.36   4 2.37  44 2.41  66 2.47
                             9 2.67  10 3.07
  96  0.282  0.352  0.415-  48 2.32  83 2.42  53 2.42  32 2.43  23 2.45  71 2.46  54 2.46   1 2.50
                            12 2.58  56 2.61  87 2.82  79 2.98
  97  0.545  0.986  0.311-  23 2.29  80 2.35   2 2.42  43 2.42  14 2.43  36 2.45  98 2.48  64 2.49
                            19 2.51  57 2.58  76 2.82  25 2.93  30 3.11
  98  0.704  0.812  0.251-  19 2.24  95 2.26  62 2.30  14 2.36   9 2.42  25 2.44  97 2.48  13 2.59
                            44 2.62  30 2.91  80 3.00  43 3.06  27 3.11
  99  0.874  0.118  0.057-  31 2.27  11 2.32  33 2.32  91 2.34  25 2.37  62 2.42  41 2.45  29 2.49
                            80 2.53  35 2.59  38 2.66  70 2.93
 100  0.215  0.615  0.149-  73 2.24  65 2.28  77 2.35  34 2.36   1 2.39  93 2.41  32 2.44  12 2.51
                            85 2.57  81 2.61  58 2.76
 

IMPORTANT INFORMATION: All symmetrisations will be switched off!
NOSYMM: (Re-)initialisation of all symmetry stuff for point group C_1.

 
 
 KPOINTS: simple                                  

Automatic generation of k-mesh.
Space group operators:
 irot       det(A)        alpha          n_x          n_y          n_z        tau_x        tau_y        tau_z
    1     1.000000     0.000000     1.000000     0.000000     0.000000     0.000000     0.000000     0.000000
 
 Subroutine IBZKPT returns following result:
 ===========================================
 
 Found      1 irreducible k-points:
 
 Following reciprocal coordinates:
            Coordinates               Weight
  0.000000  0.000000  0.000000      1.000000
 
 Following cartesian coordinates:
            Coordinates               Weight
  0.000000  0.000000  0.000000      1.000000
 


--------------------------------------------------------------------------------------------------------




 Dimension of arrays:
   k-points           NKPTS =      1   k-points in BZ     NKDIM =      1   number of bands    NBANDS=    304
   number of dos      NEDOS =    301   number of ions     NIONS =    100
   non local maximal  LDIM  =      4   non local SUM 2l+1 LMDIM =      8
   total plane-waves  NPLWV =  64000
   max r-space proj   IRMAX =   1017   max aug-charges    IRDMAX=   2209
   dimension x,y,z NGX =    40 NGY =   40 NGZ =   40
   dimension x,y,z NGXF=    80 NGYF=   80 NGZF=   80
   support grid    NGXF=    80 NGYF=   80 NGZF=   80
   ions per type =             100
   NGX,Y,Z   is equivalent  to a cutoff of   6.51,  6.51,  6.51 a.u.
   NGXF,Y,Z  is equivalent  to a cutoff of  13.02, 13.02, 13.02 a.u.

 SYSTEM =  unknown system                          
 POSCAR =  Si                                      

 Startparameter for this run:
   NWRITE =      2    write-flag & timer
   PREC   = normal    normal or accurate (medium, high low for compatibility)
   ISTART =      0    job   : 0-new  1-cont  2-samecut
   ICHARG =      2    charge: 1-file 2-atom 10-const
   ISPIN  =      2    spin polarized calculation?
   LNONCOLLINEAR =      F non collinear calculations
   LSORBIT =      F    spin-orbit coupling
   INIWAV =      1    electr: 0-lowe 1-rand  2-diag
   LASPH  =      F    aspherical Exc in radial PAW
   METAGGA=      F    non-selfconsistent MetaGGA calc.

 Electronic Relaxation 1
   ENCUT  =  245.3 eV  18.03 Ry    4.25 a.u.  13.04 13.04 13.04*2*pi/ulx,y,z
   ENINI  =  245.3     initial cutoff
   ENAUG  =  322.1 eV  augmentation charge cutoff
   NELM   =     60;   NELMIN=  4; NELMDL=-12     # of ELM steps 
   EDIFF  = 0.1E-04   stopping-criterion for ELM
   LREAL  =      T    real-space projection
   NLSPLINE    = F    spline interpolate recip. space projectors
   LCOMPAT=      F    compatible to vasp.4.4
   GGA_COMPAT  = T    GGA compatible to vasp.4.4-vasp.4.6
   LMAXPAW     = -100 max onsite density
   LMAXMIX     =    2 max onsite mixed and CHGCAR
   VOSKOWN=      0    Vosko Wilk Nusair interpolation
   ROPT   =   -0.00050
 Ionic relaxation
   EDIFFG = 0.1E-03   stopping-criterion for IOM
   NSW    =      0    number of steps for IOM
   NBLOCK =      1;   KBLOCK =      1    inner block; outer block 
   IBRION =     -1    ionic relax: 0-MD 1-quasi-New 2-CG
   NFREE  =      0    steps in history (QN), initial steepest desc. (CG)
   ISIF   =      2    stress and relaxation
   IWAVPR =     10    prediction:  0-non 1-charg 2-wave 3-comb
   ISYM   =      0    0-nonsym 1-usesym 2-fastsym
   LCORR  =      T    Harris-Foulkes like correction to forces

   POTIM  = 0.5000    time-step for ionic-motion
   TEIN   =    0.0    initial temperature
   TEBEG  =    0.0;   TEEND  =   0.0 temperature during run
   SMASS  =  -3.00    Nose mass-parameter (am)
   estimated Nose-frequenzy (Omega)   =  0.10E-29 period in steps =****** mass=  -0.238E-26a.u.
   SCALEE = 1.0000    scale energy and forces
   NPACO  =    256;   APACO  = 16.0  distance and # of slots for P.C.
   PSTRESS=    0.0 pullay stress

  Mass of Ions in am
   POMASS =  28.09
  Ionic Valenz
   ZVAL   =   4.00
  Atomic Wigner-Seitz radii
   RWIGS  =  -1.00
  virtual crystal weights 
   VCA    =   1.00
   NELECT =     400.0000    total number of electrons
   NUPDOWN=      -1.0000    fix difference up-down

 DOS related values:
   EMIN   =  10.00;   EMAX   =-10.00  energy-range for DOS
   EFERMI =   0.00
   ISMEAR =     0;   SIGMA  =   0.05  broadening in eV -4-tet -1-fermi 0-gaus

 Electronic relaxation 2 (details)
   IALGO  =     48    algorithm
   LDIAG  =      T    sub-space diagonalisation (order eigenvalues)
   LSUBROT=      F    optimize rotation matrix (better conditioning)
   TURBO    =      0    0=normal 1=particle mesh
   IRESTART =      0    0=no restart 2=restart with 2 vectors
   NREBOOT  =      0    no. of reboots
   NMIN     =      0    reboot dimension
   EREF     =   0.00    reference energy to select bands
   IMIX   =      4    mixing-type and parameters
     AMIX     =   0.40;   BMIX     =  1.00
     AMIX_MAG =   1.60;   BMIX_MAG =  1.00
     AMIN     =   0.10
     WC   =   100.;   INIMIX=   1;  MIXPRE=   1;  MAXMIX= -45

 Intra band minimization:
   WEIMIN = 0.0000     energy-eigenvalue tresh-hold
   EBREAK =  0.82E-08  absolut break condition
   DEPER  =   0.30     relativ break condition  

   TIME   =   0.40     timestep for ELM

  volume/ion in A,a.u.               =      10.65        71.86
  Fermi-wavevector in a.u.,A,eV,Ry     =   1.181242  2.232223 18.984649  1.395332
  Thomas-Fermi vector in A             =   2.317519
 
 Write flags
   LWAVE        =      F    write WAVECAR
   LDOWNSAMPLE  =      F    k-point downsampling of WAVECAR
   LCHARG       =      F    write CHGCAR
   LVTOT        =      F    write LOCPOT, total local potential
   LVHAR        =      F    write LOCPOT, Hartree potential only
   LELF         =      F    write electronic localiz. function (ELF)
   LORBIT       =      0    0 simple, 1 ext, 2 COOP (PROOUT), +10 PAW based schemes


 Dipole corrections
   LMONO  =      F    monopole corrections only (constant potential shift)
   LDIPOL =      F    correct potential (dipole corrections)
   IDIPOL =      0    1-x, 2-y, 3-z, 4-all directions 
   EPSILON=  1.0000000 bulk dielectric constant

 Exchange correlation treatment:
   GGA     =    --    GGA type
   LEXCH   =     8    internal setting for exchange type
   VOSKOWN=      0    Vosko Wilk Nusair interpolation
   LHFCALC =     F    Hartree Fock is set to
   LHFONE  =     F    Hartree Fock one center treatment
   AEXX    =    0.0000 exact exchange contribution

 Linear response parameters
   LEPSILON=     F    determine dielectric tensor
   LRPA    =     F    only Hartree local field effects (RPA)
   LNABLA  =     F    use nabla operator in PAW spheres
   LVEL    =     F    velocity operator in full k-point grid
   LINTERFAST=   F  fast interpolation
   KINTER  =     0    interpolate to denser k-point grid
   CSHIFT  =0.1000    complex shift for real part using Kramers Kronig
   OMEGAMAX=  -1.0    maximum frequency
   DEG_THRESHOLD= 0.2000000E-02 threshold for treating states as degnerate
   RTIME   =   -0.100 relaxation time in fs
  (WPLASMAI=    0.000 imaginary part of plasma frequency in eV, 0.658/RTIME)
   DFIELD  = 0.0000000 0.0000000 0.0000000 field for delta impulse in time
 
 Orbital magnetization related:
   ORBITALMAG=     F  switch on orbital magnetization
   LCHIMAG   =     F  perturbation theory with respect to B field
   DQ        =  0.001000  dq finite difference perturbation B field
   LLRAUG    =     F  two centre corrections for induced B field



--------------------------------------------------------------------------------------------------------


 Static calculation
 charge density and potential will be updated during run
 spin polarized calculation
 RMM-DIIS sequential band-by-band
 perform sub-space diagonalisation
    before iterative eigenvector-optimisation
 modified Broyden-mixing scheme, WC =      100.0
 initial mixing is a Kerker type mixing with AMIX =  0.4000 and BMIX =      1.0000
 Hartree-type preconditioning will be used
 using additional bands          104
 real space projection scheme for non local part
 use partial core corrections
 calculate Harris-corrections to forces 
   (improved forces if not selfconsistent)
 use gradient corrections 
 use of overlap-Matrix (Vanderbilt PP)
 Gauss-broadening in eV      SIGMA  =   0.05


--------------------------------------------------------------------------------------------------------


  energy-cutoff  :      245.34
  volume of cell :     1064.80
      direct lattice vectors                 reciprocal lattice vectors
    10.211495000  0.000000000  0.000000000     0.097928854  0.000000000  0.000000000
     0.000000000 10.211495000  0.000000000     0.000000000  0.097928854  0.000000000
     0.000000000  0.000000000 10.211495000     0.000000000  0.000000000  0.097928854

  length of vectors
    10.211495000 10.211495000 10.211495000     0.097928854  0.097928854  0.097928854


 
 k-points in units of 2pi/SCALE and weight: simple                                  
   0.00000000  0.00000000  0.00000000       1.000
 
 k-points in reciprocal lattice and weights: simple                                  
   0.00000000  0.00000000  0.00000000       1.000
 
 position of ions in fractional coordinates (direct lattice) 
   0.31029300  0.58853300  0.36053600
   0.61485700  0.10235400  0.50589600
   0.14390000  0.54613300  0.78271100
   0.71268800  0.52310400  0.47767500
   0.61932100  0.84991400  0.88556300
   0.00770000  0.71024400  0.79769500
   0.52844500  0.63620200  0.87863500
   0.66956100  0.46330400  0.91623800
   0.69392000  0.69548500  0.04403030
   0.03478300  0.55100400  0.42943600
   0.93355800  0.20547500  0.25849700
   0.38451500  0.44584900  0.20465500
   0.89088500  0.74160900  0.40691000
   0.52145100  0.85326800  0.11508000
   0.79755500  0.04586070  0.66782700
   0.04642140  0.31905900  0.84310300
   0.20414400  0.89766900  0.57076500
   0.02403290  0.96180500  0.40557400
   0.73631500  0.90916300  0.44508000
   0.72060000  0.83053600  0.66671300
   0.74602400  0.42924300  0.69715900
   0.93640600  0.87317300  0.60035200
   0.43541600  0.17570600  0.36035100
   0.86508800  0.88188100  0.82773200
   0.82592000  0.01676710  0.26012600
   0.59166600  0.24765600  0.92559500
   0.00231000  0.85180900  0.20902900
   0.89458000  0.25839000  0.66060500
   0.81322200  0.26759500  0.87486200
   0.58046700  0.75019400  0.49997600
   0.02853440  0.96499600  0.01221000
   0.12126100  0.42396200  0.25626600
   0.75435300  0.30865300  0.09247370
   0.15817300  0.77212700  0.98825100
   0.11456200  0.17756400  0.00059848
   0.45054300  0.93627200  0.52573200
   0.20270400  0.15367700  0.78009500
   0.98666200  0.35151900  0.08566010
   0.93309400  0.73710800  0.01026820
   0.84590300  0.52226600  0.07233370
   0.96089100  0.09936090  0.83425900
   0.56371600  0.00228916  0.71387300
   0.41128700  0.79058900  0.31389200
   0.55238500  0.61679400  0.31963000
   0.46478000  0.79137100  0.71987000
   0.05971690  0.08545560  0.61381900
   0.86589800  0.11966600  0.46588000
   0.46159900  0.29176800  0.54208900
   0.47329400  0.03519130  0.94038100
   0.10219900  0.92356100  0.78913300
   0.37900900  0.81969300  0.94666500
   0.08548150  0.70302400  0.58592300
   0.12802300  0.17265500  0.39219000
   0.25994800  0.23306400  0.20686100
   0.32687200  0.96755900  0.74986700
   0.45332300  0.50637200  0.52443400
   0.68354500  0.19710400  0.29113900
   0.14532900  0.76935500  0.35939000
   0.35148600  0.21131300  0.97978800
   0.34066700  0.72241600  0.53189700
   0.23846400  0.76029600  0.76769400
   0.78520800  0.89868200  0.05954840
   0.36424000  0.57062900  0.72216800
   0.37605200  0.05693750  0.15020400
   0.29592200  0.59773300  0.94102300
   0.62217300  0.48455400  0.14058500
   0.51904700  0.25969800  0.14446500
   0.99361900  0.47146400  0.64095300
   0.84967100  0.64398400  0.59856100
   0.11097500  0.05901050  0.20802800
   0.21843900  0.53220000  0.56092500
   0.72889600  0.30296100  0.49899800
   0.00622000  0.63164100  0.21546200
   0.77871900  0.66625000  0.82592900
   0.65863000  0.21589000  0.70347300
   0.27490100  0.98294400  0.36542000
   0.06351760  0.54187400  0.99260100
   0.97664000  0.33110200  0.45587500
   0.56595600  0.38538600  0.35559400
   0.63984800  0.06531580  0.11684700
   0.22914300  0.38946700  0.03049280
   0.29132800  0.36603700  0.81012700
   0.16163300  0.30232200  0.61356900
   0.45697200  0.42853700  0.98237700
   0.25909300  0.86266200  0.16622900
   0.89606700  0.47979300  0.85346300
   0.30619800  0.12009200  0.56363500
   0.24806300  0.99727200  0.95939300
   0.60752500  0.60567600  0.66821500
   0.52006900  0.39042900  0.75251100
   0.71887000  0.05017040  0.90418600
   0.42546400  0.18676700  0.75282700
   0.44325600  0.65512200  0.10215000
   0.81352400  0.38044200  0.29689300
   0.78365400  0.60702700  0.27301400
   0.28235800  0.35167100  0.41519600
   0.54544500  0.98638300  0.31111700
   0.70354200  0.81199200  0.25070100
   0.87438600  0.11839100  0.05747750
   0.21499500  0.61546400  0.14880000
 
 position of ions in cartesian coordinates  (Angst):
   3.16855542  6.00980179  3.68161156
   6.27860918  1.04518736  5.16595447
   1.46943413  5.57683440  7.99264946
   7.27760995  5.34167388  4.87777587
   6.32419329  8.67889256  9.04292215
   0.07862851  7.25265305  8.14565850
   5.39621348  6.49657354  8.97217691
   6.83721880  4.73102648  9.35615976
   7.08596061  7.10194160  0.44961519
   0.35518643  5.62657459  4.38518357
   9.53302285  2.09820694  2.63964082
   3.92647300  4.55278483  2.08983351
   9.09726772  7.57293660  4.15515943
   5.32479428  8.71314192  1.17513884
   8.14422889  0.46830631  6.81951207
   0.47403189  3.25806938  8.60934207
   2.08461544  9.16654251  5.82836394
   0.24541184  9.82146695  4.14151687
   7.51887694  9.28391343  4.54493219
   7.35840330  8.48101421  6.80813647
   7.61802035  4.38321275  7.11903564
   9.56210519  8.91640172  6.13049145
   4.44624831  1.79422094  3.67972243
   8.83384179  9.00532342  8.45238118
   8.43387795  0.17121716  2.65627535
   6.04179440  2.52893801  9.45170871
   0.02358855  8.69824334  2.13449859
   9.13499920  2.63854819  6.74576465
   8.30421239  2.73254500  8.93364894
   5.92743587  7.66060228  5.10550242
   0.29137888  9.85405183  0.12468235
   1.23825610  4.32928584  2.61685898
   7.70307189  3.15180857  0.94429473
   1.61518280  7.88457100 10.09152015
   1.16984929  1.81319390  0.00611140
   4.60071759  9.56073685  5.36850969
   2.06991088  1.56927192  7.96593619
  10.07529408  3.58953451  0.87471768
   9.52828472  7.52697466  0.10485367
   8.63793425  5.33311665  0.73863522
   9.81213364  1.01462333  8.51903161
   5.75638312  0.02337575  7.28971057
   4.19985514  8.07309562  3.20530659
   5.64067667  6.29838885  3.26390015
   4.74609865  8.08108101  7.35094891
   0.60979883  0.87262943  6.26800965
   8.84211310  1.22196876  4.75733129
   4.71361588  2.97938747  5.53553911
   4.83303931  0.35935578  9.60269588
   1.04360458  9.43093853  8.05822768
   3.87024851  8.37029097  9.66686491
   0.87289391  7.17892606  5.98314978
   1.30730622  1.76306567  4.00484622
   2.65445770  2.37993187  2.11236007
   3.33785179  9.88022389  7.65726312
   4.62910555  5.17081515  5.35525517
   6.98001635  2.01272651  2.97296444
   1.48402636  7.85626474  3.66990919
   3.58919753  2.15782164 10.00510026
   3.47871937  7.37694737  5.43146356
   2.43507394  7.76375880  7.83930344
   8.01814757  9.17688675  0.60807819
   3.71943494  5.82697518  7.37441492
   3.84005312  0.58141700  1.53380739
   3.02180602  6.10374754  9.60925166
   6.35331648  4.94802075  1.43558302
   5.30024585  2.65190483  1.47520363
  10.14633545  4.81435228  6.54508835
   8.67641117  6.57603940  6.11220266
   1.13322066  0.60258543  2.12427688
   2.23058876  5.43455764  5.72788283
   7.44311786  3.09368474  5.09551558
   0.06351550  6.44999891  2.20018914
   7.95188517  6.80340854  8.43396985
   6.72559695  2.20455966  7.18351102
   2.80715019 10.03732774  3.73148450
   0.64860965  5.53334364 10.13594015
   9.97295448  3.38104642  4.65516528
   5.77925686  3.93536721  3.63114635
   6.53380465  0.66697197  1.19318256
   2.33989260  3.97704032  0.31137707
   2.97489442  3.73778500  8.27260781
   1.65051457  3.08715959  6.26545678
   4.66636729  4.37600343 10.03153782
   2.64572687  8.80906870  1.69744660
   9.15018369  4.89940382  8.71513316
   3.12673935  1.22631886  5.75555598
   2.53309408 10.18363804  9.79683682
   6.20373850  6.18485745  6.82347413
   5.31068199  3.98686378  7.68426231
   7.34073741  0.51231479  9.23309082
   4.34462351  1.90717029  7.68748915
   4.52630643  6.68977503  1.04310421
   8.30729626  3.88488158  3.03172139
   8.00227890  6.19865318  2.78788110
   2.88329731  3.59108666  4.23977188
   5.56980889 10.07244507  3.17696969
   7.18421562  8.29165225  2.56003201
   8.92878827  1.20894910  0.58693120
   2.19542037  6.28480756  1.51947046
 


--------------------------------------------------------------------------------------------------------


 k-point  1 :   0.0000 0.0000 0.0000  plane waves:    9315

 maximum and minimum number of plane-waves per node :      9315     9315

 maximum number of plane-waves:      9315
 maximum index in each direction: 
   IXMAX=   13   IYMAX=   13   IZMAX=   13
   IXMIN=  -13   IYMIN=  -13   IZMIN=  -13


 serial   3D FFT for wavefunctions
 parallel 3D FFT for charge:
    minimum data exchange during FFTs selected (reduces bandwidth)


 total amount of memory used by VASP MPI-rank0    53949. kBytes
=======================================================================

   base      :      30000. kBytes
   nonlr-proj:       8281. kBytes
   fftplans  :       1377. kBytes
   grid      :       7520. kBytes
   one-center:        614. kBytes
   wavefun   :       6157. kBytes
 
     INWAV:  cpu time    0.0000: real time    0.0000
 Broyden mixing: mesh for mixing (old mesh)
   NGX = 27   NGY = 27   NGZ = 27
  (NGX  = 80   NGY  = 80   NGZ  = 80)
  gives a total of  19683 points

 initial charge density was supplied:
 charge density of overlapping atoms calculated
 number of electron     400.0000000 magnetization     100.0000000
 keeping initial charge density in first step


--------------------------------------------------------------------------------------------------------


 Maximum index for non-local projection operator          953
 Maximum index for augmentation-charges          191 (set IRDMAX)


--------------------------------------------------------------------------------------------------------


 First call to EWALD:  gamma=   0.174
 Maximum number of real-space cells 3x 3x 3
 Maximum number of reciprocal cells 3x 3x 3

    FEWALD:  cpu time    0.0076: real time    0.0076


--------------------------------------- Iteration      1(   1)  ---------------------------------------


    POTLOK:  cpu time    0.0553: real time    0.1453
    SETDIJ:  cpu time    0.0346: real time    0.0347
    EDDIAG:  cpu time    0.3454: real time    0.3473
  RMM-DIIS:  cpu time    0.4256: real time    0.4306
    ORTHCH:  cpu time    0.0978: real time    0.0984
       DOS:  cpu time    0.0004: real time    0.0004
    --------------------------------------------
      LOOP:  cpu time    0.9591: real time    1.0567

 eigenvalue-minimisations  :   608
 total energy-change (2. order) : 0.1355104E+04  (-0.7437629E+04)
 number of electron     400.0000000 magnetization     100.0000000
 augmentation part      400.0000000 magnetization     100.0000000

 Free energy of the ion-electron system (eV)
  ---------------------------------------------------
  alpha Z        PSCENC =       316.14514549
  Ewald energy   TEWEN  =    -14988.20341961
  -Hartree energ DENC   =       -83.97325359
  -exchange      EXHF   =         0.00000000
  -V(xc)+E(xc)   XCENC  =      -778.31444596
  PAW double counting   =      8803.41707833    -7043.47671478
  entropy T*S    EENTRO =        -0.00951234
  eigenvalues    EBANDS =      4823.39007704
  atomic energy  EATOM  =     10306.12861560
  Solvation  Ediel_sol  =         0.00000000
  ---------------------------------------------------
  free energy    TOTEN  =      1355.10357018 eV

  energy without entropy =     1355.11308252  energy(sigma->0) =     1355.10832635


--------------------------------------------------------------------------------------------------------




--------------------------------------- Iteration      1(   2)  ---------------------------------------


    EDDIAG:  cpu time    0.3391: real time    0.3412
  RMM-DIIS:  cpu time    0.4368: real time    0.4419
    ORTHCH:  cpu time    0.0975: real time    0.0981
       DOS:  cpu time    0.0003: real time    0.0003
    --------------------------------------------
      LOOP:  cpu time    0.8738: real time    0.8816

 eigenvalue-minimisations  :   608
 total energy-change (2. order) :-0.1362725E+04  (-0.1304741E+04)
 number of electron     400.0000000 magnetization     100.0000000
 augmentation part      400.0000000 magnetization     100.0000000

 Free energy of the ion-electron system (eV)
  ---------------------------------------------------
  alpha Z        PSCENC =       316.14514549
  Ewald energy   TEWEN  =    -14988.20341961
  -Hartree energ DENC   =       -83.97325359
  -exchange      EXHF   =         0.00000000
  -V(xc)+E(xc)   XCENC  =      -778.31444596
  PAW double counting   =      8803.41707833    -7043.47671478
  entropy T*S    EENTRO =        -0.03427667
  eigenvalues    EBANDS =      3460.68950202
  atomic energy  EATOM  =     10306.12861560
  Solvation  Ediel_sol  =         0.00000000
  ---------------------------------------------------
  free energy    TOTEN  =        -7.62176917 eV

  energy without entropy =       -7.58749250  energy(sigma->0) =       -7.60463084


--------------------------------------------------------------------------------------------------------




--------------------------------------- Iteration      1(   3)  ---------------------------------------


    EDDIAG:  cpu time    0.3379: real time    0.3398
  RMM-DIIS:  cpu time    0.4371: real time    0.4419
    ORTHCH:  cpu time    0.0973: real time    0.0979
       DOS:  cpu time    0.0003: real time    0.0003
    --------------------------------------------
      LOOP:  cpu time    0.8726: real time    0.8799

 eigenvalue-minimisations  :   608
 total energy-change (2. order) :-0.2851412E+03  (-0.2780663E+03)
 number of electron     400.0000000 magnetization     100.0000000
 augmentation part      400.0000000 magnetization     100.0000000

 Free energy of the ion-electron system (eV)
  ---------------------------------------------------
  alpha Z        PSCENC =       316.14514549
  Ewald energy   TEWEN  =    -14988.20341961
  -Hartree energ DENC   =       -83.97325359
  -exchange      EXHF   =         0.00000000
  -V(xc)+E(xc)   XCENC  =      -778.31444596
  PAW double counting   =      8803.41707833    -7043.47671478
  entropy T*S    EENTRO =        -0.02755397
  eigenvalues    EBANDS =      3175.54161536
  atomic energy  EATOM  =     10306.12861560
  Solvation  Ediel_sol  =         0.00000000
  ---------------------------------------------------
  free energy    TOTEN  =      -292.76293313 eV

  energy without entropy =     -292.73537916  energy(sigma->0) =     -292.74915614


--------------------------------------------------------------------------------------------------------




--------------------------------------- Iteration      1(   4)  ---------------------------------------


    EDDIAG:  cpu time    0.3377: real time    0.3397
  RMM-DIIS:  cpu time    0.4387: real time    0.4437
    ORTHCH:  cpu time    0.0972: real time    0.0978
       DOS:  cpu time    0.0003: real time    0.0003
    --------------------------------------------
      LOOP:  cpu time    0.8740: real time    0.8815

 eigenvalue-minimisations  :   608
 total energy-change (2. order) :-0.7863507E+02  (-0.6645194E+02)
 number of electron     400.0000000 magnetization     100.0000000
 augmentation part      400.0000000 magnetization     100.0000000

 Free energy of the ion-electron system (eV)
  ---------------------------------------------------
  alpha Z        PSCENC =       316.14514549
  Ewald energy   TEWEN  =    -14988.20341961
  -Hartree energ DENC   =       -83.97325359
  -exchange      EXHF   =         0.00000000
  -V(xc)+E(xc)   XCENC  =      -778.31444596
  PAW double counting   =      8803.41707833    -7043.47671478
  entropy T*S    EENTRO =        -0.04225455
  eigenvalues    EBANDS =      3096.92124404
  atomic energy  EATOM  =     10306.12861560
  Solvation  Ediel_sol  =         0.00000000
  ---------------------------------------------------
  free energy    TOTEN  =      -371.39800504 eV

  energy without entropy =     -371.35575048  energy(sigma->0) =     -371.37687776


--------------------------------------------------------------------------------------------------------




--------------------------------------- Iteration      1(   5)  ---------------------------------------


    EDDIAG:  cpu time    0.3373: real time    0.3393
  RMM-DIIS:  cpu time    0.4362: real time    0.4412
    ORTHCH:  cpu time    0.0974: real time    0.0980
       DOS:  cpu time    0.0003: real time    0.0003
    --------------------------------------------
      LOOP:  cpu time    0.8712: real time    0.8788

 eigenvalue-minimisations  :   608
 total energy-change (2. order) :-0.2486655E+02  (-0.2033060E+02)
 number of electron     400.0000000 magnetization     100.0000000
 augmentation part      400.0000000 magnetization     100.0000000

 Free energy of the ion-electron system (eV)
  ---------------------------------------------------
  alpha Z        PSCENC =       316.14514549
  Ewald energy   TEWEN  =    -14988.20341961
  -Hartree energ DENC   =       -83.97325359
  -exchange      EXHF   =         0.00000000
  -V(xc)+E(xc)   XCENC  =      -778.31444596
  PAW double counting   =      8803.41707833    -7043.47671478
  entropy T*S    EENTRO =        -0.05772219
  eigenvalues    EBANDS =      3072.07016420
  atomic energy  EATOM  =     10306.12861560
  Solvation  Ediel_sol  =         0.00000000
  ---------------------------------------------------
  free energy    TOTEN  =      -396.26455251 eV

  energy without entropy =     -396.20683032  energy(sigma->0) =     -396.23569142


--------------------------------------------------------------------------------------------------------




--------------------------------------- Iteration      1(   6)  ---------------------------------------


    EDDIAG:  cpu time    0.3385: real time    0.3405
  RMM-DIIS:  cpu time    0.4377: real time    0.4430
    ORTHCH:  cpu time    0.0972: real time    0.0978
       DOS:  cpu time    0.0003: real time    0.0004
    --------------------------------------------
      LOOP:  cpu time    0.8738: real time    0.8816

 eigenvalue-minimisations  :   608
 total energy-change (2. order) :-0.9176002E+01  (-0.7015725E+01)
 number of electron     400.0000000 magnetization     100.0000000
 augmentation part      400.0000000 magnetization     100.0000000

 Free energy of the ion-electron system (eV)
  ---------------------------------------------------
  alpha Z        PSCENC =       316.14514549
  Ewald energy   TEWEN  =    -14988.20341961
  -Hartree energ DENC   =       -83.97325359
  -exchange      EXHF   =         0.00000000
  -V(xc)+E(xc)   XCENC  =      -778.31444596
  PAW double counting   =      8803.41707833    -7043.47671478
  entropy T*S    EENTRO =        -0.03961113
  eigenvalues    EBANDS =      3062.87605081
  atomic energy  EATOM  =     10306.12861560
  Solvation  Ediel_sol  =         0.00000000
  ---------------------------------------------------
  free energy    TOTEN  =      -405.44055483 eV

  energy without entropy =     -405.40094371  energy(sigma->0) =     -405.42074927


--------------------------------------------------------------------------------------------------------




--------------------------------------- Iteration      1(   7)  ---------------------------------------


    EDDIAG:  cpu time    0.3381: real time    0.3400
  RMM-DIIS:  cpu time    0.4371: real time    0.4420
    ORTHCH:  cpu time    0.0973: real time    0.0979
       DOS:  cpu time    0.0003: real time    0.0003
    --------------------------------------------
      LOOP:  cpu time    0.8729: real time    0.8803

 eigenvalue-minimisations  :   608
 total energy-change (2. order) :-0.3304198E+01  (-0.2704677E+01)
 number of electron     400.0000000 magnetization     100.0000000
 augmentation part      400.0000000 magnetization     100.0000000

 Free energy of the ion-electron system (eV)
  ---------------------------------------------------
  alpha Z        PSCENC =       316.14514549
  Ewald energy   TEWEN  =    -14988.20341961
  -Hartree energ DENC   =       -83.97325359
  -exchange      EXHF   =         0.00000000
  -V(xc)+E(xc)   XCENC  =      -778.31444596
  PAW double counting   =      8803.41707833    -7043.47671478
  entropy T*S    EENTRO =        -0.04771605
  eigenvalues    EBANDS =      3059.57995788
  atomic energy  EATOM  =     10306.12861560
  Solvation  Ediel_sol  =         0.00000000
  ---------------------------------------------------
  free energy    TOTEN  =      -408.74475269 eV

  energy without entropy =     -408.69703664  energy(sigma->0) =     -408.72089466


--------------------------------------------------------------------------------------------------------




--------------------------------------- Iteration      1(   8)  ---------------------------------------


    EDDIAG:  cpu time    0.3370: real time    0.3389
  RMM-DIIS:  cpu time    0.4399: real time    0.4450
    ORTHCH:  cpu time    0.0972: real time    0.0978
       DOS:  cpu time    0.0003: real time    0.0003
    --------------------------------------------
      LOOP:  cpu time    0.8744: real time    0.8820

 eigenvalue-minimisations  :   608
 total energy-change (2. order) :-0.1317336E+01  (-0.1072134E+01)
 number of electron     400.0000000 magnetization     100.0000000
 augmentation part      400.0000000 magnetization     100.0000000

 Free energy of the ion-electron system (eV)
  ---------------------------------------------------
  alpha Z        PSCENC =       316.14514549
  Ewald energy   TEWEN  =    -14988.20341961
  -Hartree energ DENC   =       -83.97325359
  -exchange      EXHF   =         0.00000000
  -V(xc)+E(xc)   XCENC  =      -778.31444596
  PAW double counting   =      8803.41707833    -7043.47671478
  entropy T*S    EENTRO =        -0.05256722
  eigenvalues    EBANDS =      3058.26747257
  atomic energy  EATOM  =     10306.12861560
  Solvation  Ediel_sol  =         0.00000000
  ---------------------------------------------------
  free energy    TOTEN  =      -410.06208917 eV

  energy without entropy =     -410.00952195  energy(sigma->0) =     -410.03580556


--------------------------------------------------------------------------------------------------------




--------------------------------------- Iteration      1(   9)  ---------------------------------------


    EDDIAG:  cpu time    0.3371: real time    0.3391
  RMM-DIIS:  cpu time    0.9712: real time    0.9831
    ORTHCH:  cpu time    0.0979: real time    0.0985
       DOS:  cpu time    0.0004: real time    0.0004
    --------------------------------------------
      LOOP:  cpu time    1.4065: real time    1.4211

 eigenvalue-minimisations  :  1498
 total energy-change (2. order) :-0.7460453E+00  (-0.6821253E+00)
 number of electron     400.0000000 magnetization     100.0000000
 augmentation part      400.0000000 magnetization     100.0000000

 Free energy of the ion-electron system (eV)
  ---------------------------------------------------
  alpha Z        PSCENC =       316.14514549
  Ewald energy   TEWEN  =    -14988.20341961
  -Hartree energ DENC   =       -83.97325359
  -exchange      EXHF   =         0.00000000
  -V(xc)+E(xc)   XCENC  =      -778.31444596
  PAW double counting   =      8803.41707833    -7043.47671478
  entropy T*S    EENTRO =        -0.06162735
  eigenvalues    EBANDS =      3057.53048744
  atomic energy  EATOM  =     10306.12861560
  Solvation  Ediel_sol  =         0.00000000
  ---------------------------------------------------
  free energy    TOTEN  =      -410.80813443 eV

  energy without entropy =     -410.74650708  energy(sigma->0) =     -410.77732075


--------------------------------------------------------------------------------------------------------




--------------------------------------- Iteration      1(  10)  ---------------------------------------


    EDDIAG:  cpu time    0.3378: real time    0.3398
  RMM-DIIS:  cpu time    0.9033: real time    0.9144
    ORTHCH:  cpu time    0.0980: real time    0.0986
       DOS:  cpu time    0.0003: real time    0.0003
    --------------------------------------------
      LOOP:  cpu time    1.3394: real time    1.3531

 eigenvalue-minimisations  :  1419
 total energy-change (2. order) :-0.9235711E-01  (-0.4567399E-01)
 number of electron     400.0000000 magnetization     100.0000000
 augmentation part      400.0000000 magnetization     100.0000000

 Free energy of the ion-electron system (eV)
  ---------------------------------------------------
  alpha Z        PSCENC =       316.14514549
  Ewald energy   TEWEN  =    -14988.20341961
  -Hartree energ DENC   =       -83.97325359
  -exchange      EXHF   =         0.00000000
  -V(xc)+E(xc)   XCENC  =      -778.31444596
  PAW double counting   =      8803.41707833    -7043.47671478
  entropy T*S    EENTRO =        -0.06377336
  eigenvalues    EBANDS =      3057.44027634
  atomic energy  EATOM  =     10306.12861560
  Solvation  Ediel_sol  =         0.00000000
  ---------------------------------------------------
  free energy    TOTEN  =      -410.90049154 eV

  energy without entropy =     -410.83671818  energy(sigma->0) =     -410.86860486


--------------------------------------------------------------------------------------------------------




--------------------------------------- Iteration      1(  11)  ---------------------------------------


    EDDIAG:  cpu time    0.3371: real time    0.3394
  RMM-DIIS:  cpu time    0.8956: real time    0.9065
    ORTHCH:  cpu time    0.0974: real time    0.0980
       DOS:  cpu time    0.0003: real time    0.0003
    --------------------------------------------
      LOOP:  cpu time    1.3305: real time    1.3442

 eigenvalue-minimisations  :  1345
 total energy-change (2. order) :-0.1722199E-02  (-0.1234617E-02)
 number of electron     400.0000000 magnetization     100.0000000
 augmentation part      400.0000000 magnetization     100.0000000

 Free energy of the ion-electron system (eV)
  ---------------------------------------------------
  alpha Z        PSCENC =       316.14514549
  Ewald energy   TEWEN  =    -14988.20341961
  -Hartree energ DENC   =       -83.97325359
  -exchange      EXHF   =         0.00000000
  -V(xc)+E(xc)   XCENC  =      -778.31444596
  PAW double counting   =      8803.41707833    -7043.47671478
  entropy T*S    EENTRO =        -0.06379943
  eigenvalues    EBANDS =      3057.43858021
  atomic energy  EATOM  =     10306.12861560
  Solvation  Ediel_sol  =         0.00000000
  ---------------------------------------------------
  free energy    TOTEN  =      -410.90221373 eV

  energy without entropy =     -410.83841431  energy(sigma->0) =     -410.87031402


--------------------------------------------------------------------------------------------------------




--------------------------------------- Iteration      1(  12)  ---------------------------------------


    EDDIAG:  cpu time    0.3362: real time    0.3381
  RMM-DIIS:  cpu time    0.7588: real time    0.7683
    ORTHCH:  cpu time    0.0976: real time    0.0982
       DOS:  cpu time    0.0003: real time    0.0003
    CHARGE:  cpu time    0.0445: real time    0.0446
    MIXING:  cpu time    0.0010: real time    0.0010
    --------------------------------------------
      LOOP:  cpu time    1.2385: real time    1.2507

 eigenvalue-minimisations  :  1100
 total energy-change (2. order) :-0.1141673E-04  (-0.1186103E-04)
 number of electron     399.9999992 magnetization      66.7846847
 augmentation part      -23.1308703 magnetization      41.6665448

 Broyden mixing:
  rms(total) = 0.59744E+01    rms(broyden)= 0.59744E+01
  rms(prec ) = 0.61312E+01
  weight for this iteration     100.00

 Free energy of the ion-electron system (eV)
  ---------------------------------------------------
  alpha Z        PSCENC =       316.14514549
  Ewald energy   TEWEN  =    -14988.20341961
  -Hartree energ DENC   =       -83.97325359
  -exchange      EXHF   =         0.00000000
  -V(xc)+E(xc)   XCENC  =      -778.31444596
  PAW double counting   =      8803.41707833    -7043.47671478
  entropy T*S    EENTRO =        -0.06379959
  eigenvalues    EBANDS =      3057.43856896
  atomic energy  EATOM  =     10306.12861560
  Solvation  Ediel_sol  =         0.00000000
  ---------------------------------------------------
  free energy    TOTEN  =      -410.90222515 eV

  energy without entropy =     -410.83842556  energy(sigma->0) =     -410.87032536


--------------------------------------------------------------------------------------------------------




--------------------------------------- Iteration      1(  13)  ---------------------------------------


    POTLOK:  cpu time    0.0528: real time    0.0531
    SETDIJ:  cpu time    0.0348: real time    0.0349
    EDDIAG:  cpu time    0.3379: real time    0.3397
  RMM-DIIS:  cpu time    0.8970: real time    0.9081
    ORTHCH:  cpu time    0.0994: real time    0.1000
       DOS:  cpu time    0.0004: real time    0.0004
    CHARGE:  cpu time    0.0444: real time    0.0447
    MIXING:  cpu time    0.0012: real time    0.0012
    --------------------------------------------
      LOOP:  cpu time    1.4679: real time    1.4821

 eigenvalue-minimisations  :  1363
 total energy-change (2. order) :-0.8102783E+01  (-0.7963813E+00)
 number of electron     399.9999994 magnetization      32.1152497
 augmentation part      -23.1929073 magnetization      13.9556605

 Broyden mixing:
  rms(total) = 0.35834E+01    rms(broyden)= 0.35834E+01
  rms(prec ) = 0.36715E+01
  weight for this iteration     100.00

 eigenvalues of (default mixing * dielectric matrix)
  average eigenvalue GAMMA=   1.2515
  1.2515

 Free energy of the ion-electron system (eV)
  ---------------------------------------------------
  alpha Z        PSCENC =       316.14514549
  Ewald energy   TEWEN  =    -14988.20341961
  -Hartree energ DENC   =       -97.32113432
  -exchange      EXHF   =         0.00000000
  -V(xc)+E(xc)   XCENC  =      -778.55882351
  PAW double counting   =     29700.39545277   -27945.64406338
  entropy T*S    EENTRO =        -0.05222351
  eigenvalues    EBANDS =      3068.10544233
  atomic energy  EATOM  =     10306.12861560
  Solvation  Ediel_sol  =         0.00000000
  ---------------------------------------------------
  free energy    TOTEN  =      -419.00500815 eV

  energy without entropy =     -418.95278464  energy(sigma->0) =     -418.97889639


--------------------------------------------------------------------------------------------------------




--------------------------------------- Iteration      1(  14)  ---------------------------------------


    POTLOK:  cpu time    0.0526: real time    0.0529
    SETDIJ:  cpu time    0.0348: real time    0.0349
    EDDIAG:  cpu time    0.3370: real time    0.3389
  RMM-DIIS:  cpu time    0.8865: real time    0.8974
    ORTHCH:  cpu time    0.0995: real time    0.1002
       DOS:  cpu time    0.0004: real time    0.0004
    CHARGE:  cpu time    0.0445: real time    0.0447
    MIXING:  cpu time    0.0013: real time    0.0013
    --------------------------------------------
      LOOP:  cpu time    1.4566: real time    1.4707

 eigenvalue-minimisations  :  1337
 total energy-change (2. order) :-0.8155147E+01  (-0.4722689E+00)
 number of electron     399.9999994 magnetization      12.7730752
 augmentation part      -23.3424406 magnetization       4.4879718

 Broyden mixing:
  rms(total) = 0.17043E+01    rms(broyden)= 0.17042E+01
  rms(prec ) = 0.20194E+01
  weight for this iteration     100.00

 eigenvalues of (default mixing * dielectric matrix)
  average eigenvalue GAMMA=   1.4695
  2.3597  0.5792

 Free energy of the ion-electron system (eV)
  ---------------------------------------------------
  alpha Z        PSCENC =       316.14514549
  Ewald energy   TEWEN  =    -14988.20341961
  -Hartree energ DENC   =      -101.55968720
  -exchange      EXHF   =         0.00000000
  -V(xc)+E(xc)   XCENC  =      -774.71646693
  PAW double counting   =     62546.35404803   -60795.94376700
  entropy T*S    EENTRO =        -0.05881888
  eigenvalues    EBANDS =      3064.69419493
  atomic energy  EATOM  =     10306.12861560
  Solvation  Ediel_sol  =         0.00000000
  ---------------------------------------------------
  free energy    TOTEN  =      -427.16015558 eV

  energy without entropy =     -427.10133671  energy(sigma->0) =     -427.13074614


--------------------------------------------------------------------------------------------------------




--------------------------------------- Iteration      1(  15)  ---------------------------------------


    POTLOK:  cpu time    0.0525: real time    0.0529
    SETDIJ:  cpu time    0.0348: real time    0.0349
    EDDIAG:  cpu time    0.3379: real time    0.3398
  RMM-DIIS:  cpu time    0.8911: real time    0.9020
    ORTHCH:  cpu time    0.0991: real time    0.0997
       DOS:  cpu time    0.0004: real time    0.0004
    CHARGE:  cpu time    0.0441: real time    0.0442
    MIXING:  cpu time    0.0014: real time    0.0014
    --------------------------------------------
      LOOP:  cpu time    1.4613: real time    1.4753

 eigenvalue-minimisations  :  1367
 total energy-change (2. order) :-0.4647012E+00  (-0.1266860E+00)
 number of electron     399.9999995 magnetization       9.3008514
 augmentation part      -23.4069564 magnetization       5.1773950

 Broyden mixing:
  rms(total) = 0.35529E+00    rms(broyden)= 0.35528E+00
  rms(prec ) = 0.41994E+00
  weight for this iteration     100.00

 eigenvalues of (default mixing * dielectric matrix)
  average eigenvalue GAMMA=   1.2881
  2.3812  0.8847  0.5983

 Free energy of the ion-electron system (eV)
  ---------------------------------------------------
  alpha Z        PSCENC =       316.14514549
  Ewald energy   TEWEN  =    -14988.20341961
  -Hartree energ DENC   =      -108.72221057
  -exchange      EXHF   =         0.00000000
  -V(xc)+E(xc)   XCENC  =      -772.09274691
  PAW double counting   =     81945.17530113   -80197.54336555
  entropy T*S    EENTRO =        -0.05010551
  eigenvalues    EBANDS =      3071.53792914
  atomic energy  EATOM  =     10306.12861560
  Solvation  Ediel_sol  =         0.00000000
  ---------------------------------------------------
  free energy    TOTEN  =      -427.62485679 eV

  energy without entropy =     -427.57475128  energy(sigma->0) =     -427.59980404


--------------------------------------------------------------------------------------------------------




--------------------------------------- Iteration      1(  16)  ---------------------------------------


    POTLOK:  cpu time    0.0526: real time    0.0529
    SETDIJ:  cpu time    0.0349: real time    0.0350
    EDDIAG:  cpu time    0.3375: real time    0.3393
  RMM-DIIS:  cpu time    0.9170: real time    0.9283
    ORTHCH:  cpu time    0.0994: real time    0.1000
       DOS:  cpu time    0.0004: real time    0.0004
    CHARGE:  cpu time    0.0444: real time    0.0446
    MIXING:  cpu time    0.0018: real time    0.0018
    --------------------------------------------
      LOOP:  cpu time    1.4879: real time    1.5023

 eigenvalue-minimisations  :  1403
 total energy-change (2. order) :-0.1396711E+00  (-0.2949234E-01)
 number of electron     399.9999994 magnetization       5.3484127
 augmentation part      -23.4202670 magnetization       2.1755221

 Broyden mixing:
  rms(total) = 0.24638E+00    rms(broyden)= 0.24638E+00
  rms(prec ) = 0.26533E+00
  weight for this iteration     100.00

 eigenvalues of (default mixing * dielectric matrix)
  average eigenvalue GAMMA=   1.3853
  2.3391  1.8279  0.7559  0.6184

 Free energy of the ion-electron system (eV)
  ---------------------------------------------------
  alpha Z        PSCENC =       316.14514549
  Ewald energy   TEWEN  =    -14988.20341961
  -Hartree energ DENC   =      -108.38499282
  -exchange      EXHF   =         0.00000000
  -V(xc)+E(xc)   XCENC  =      -771.93970902
  PAW double counting   =     81707.76533586   -79960.33096410
  entropy T*S    EENTRO =        -0.04885819
  eigenvalues    EBANDS =      3071.10431892
  atomic energy  EATOM  =     10306.12861560
  Solvation  Ediel_sol  =         0.00000000
  ---------------------------------------------------
  free energy    TOTEN  =      -427.76452787 eV

  energy without entropy =     -427.71566968  energy(sigma->0) =     -427.74009878


--------------------------------------------------------------------------------------------------------




--------------------------------------- Iteration      1(  17)  ---------------------------------------


    POTLOK:  cpu time    0.0528: real time    0.0548
    SETDIJ:  cpu time    0.0349: real time    0.0350
    EDDIAG:  cpu time    0.3381: real time    0.3400
  RMM-DIIS:  cpu time    0.9731: real time    0.9849
    ORTHCH:  cpu time    0.0992: real time    0.0998
       DOS:  cpu time    0.0004: real time    0.0004
    CHARGE:  cpu time    0.0441: real time    0.0442
    MIXING:  cpu time    0.0016: real time    0.0016
    --------------------------------------------
      LOOP:  cpu time    1.5442: real time    1.5607

 eigenvalue-minimisations  :  1449
 total energy-change (2. order) :-0.1028380E+00  (-0.1024003E-01)
 number of electron     399.9999994 magnetization       2.4426899
 augmentation part      -23.4291829 magnetization       0.3780413

 Broyden mixing:
  rms(total) = 0.12951E+00    rms(broyden)= 0.12951E+00
  rms(prec ) = 0.15071E+00
  weight for this iteration     100.00

 eigenvalues of (default mixing * dielectric matrix)
  average eigenvalue GAMMA=   1.4011
  2.3953  2.3953  0.6138  0.8726  0.7285

 Free energy of the ion-electron system (eV)
  ---------------------------------------------------
  alpha Z        PSCENC =       316.14514549
  Ewald energy   TEWEN  =    -14988.20341961
  -Hartree energ DENC   =      -108.22346407
  -exchange      EXHF   =         0.00000000
  -V(xc)+E(xc)   XCENC  =      -771.76287641
  PAW double counting   =     80845.31385223   -79098.05817505
  entropy T*S    EENTRO =        -0.04658721
  eigenvalues    EBANDS =      3070.83954318
  atomic energy  EATOM  =     10306.12861560
  Solvation  Ediel_sol  =         0.00000000
  ---------------------------------------------------
  free energy    TOTEN  =      -427.86736586 eV

  energy without entropy =     -427.82077864  energy(sigma->0) =     -427.84407225


--------------------------------------------------------------------------------------------------------




--------------------------------------- Iteration      1(  18)  ---------------------------------------


    POTLOK:  cpu time    0.0525: real time    0.0529
    SETDIJ:  cpu time    0.0349: real time    0.0350
    EDDIAG:  cpu time    0.3391: real time    0.3411
  RMM-DIIS:  cpu time    0.6543: real time    1.1791
    ORTHCH:  cpu time    0.0994: real time    0.1000
       DOS:  cpu time    0.0004: real time    0.0004
    CHARGE:  cpu time    0.0440: real time    0.0442
    MIXING:  cpu time    0.0017: real time    0.0017
    --------------------------------------------
      LOOP:  cpu time    1.2264: real time    1.7543

 eigenvalue-minimisations  :  1403
 total energy-change (2. order) :-0.4054578E-01  (-0.3620991E-02)
 number of electron     399.9999994 magnetization       1.4274590
 augmentation part      -23.4358360 magnetization       0.1281296

 Broyden mixing:
  rms(total) = 0.54332E-01    rms(broyden)= 0.54329E-01
  rms(prec ) = 0.66478E-01
  weight for this iteration     100.00

 eigenvalues of (default mixing * dielectric matrix)
  average eigenvalue GAMMA=   1.3800
  2.8123  2.3327  1.0645  0.8730  0.5987  0.5987

 Free energy of the ion-electron system (eV)
  ---------------------------------------------------
  alpha Z        PSCENC =       316.14514549
  Ewald energy   TEWEN  =    -14988.20341961
  -Hartree energ DENC   =      -107.98646856
  -exchange      EXHF   =         0.00000000
  -V(xc)+E(xc)   XCENC  =      -771.60428337
  PAW double counting   =     80344.83105177   -78597.71159889
  entropy T*S    EENTRO =        -0.04912790
  eigenvalues    EBANDS =      3070.54217384
  atomic energy  EATOM  =     10306.12861560
  Solvation  Ediel_sol  =         0.00000000
  ---------------------------------------------------
  free energy    TOTEN  =      -427.90791164 eV

  energy without entropy =     -427.85878374  energy(sigma->0) =     -427.88334769


--------------------------------------------------------------------------------------------------------




--------------------------------------- Iteration      1(  19)  ---------------------------------------


    POTLOK:  cpu time    0.0524: real time    0.0527
    SETDIJ:  cpu time    0.0349: real time    0.0350
    EDDIAG:  cpu time    0.3381: real time    0.3400
  RMM-DIIS:  cpu time    0.9184: real time    0.9297
    ORTHCH:  cpu time    0.0991: real time    0.0997
       DOS:  cpu time    0.0004: real time    0.0004
    CHARGE:  cpu time    0.0440: real time    0.0442
    MIXING:  cpu time    0.0018: real time    0.0018
    --------------------------------------------
      LOOP:  cpu time    1.4890: real time    1.5036

 eigenvalue-minimisations  :  1416
 total energy-change (2. order) :-0.5633405E-02  (-0.1031934E-02)
 number of electron     399.9999994 magnetization       0.8487735
 augmentation part      -23.4369782 magnetization      -0.0346348

 Broyden mixing:
  rms(total) = 0.26523E-01    rms(broyden)= 0.26521E-01
  rms(prec ) = 0.30876E-01
  weight for this iteration     100.00

 eigenvalues of (default mixing * dielectric matrix)
  average eigenvalue GAMMA=   1.3754
  3.0869  2.3331  1.1697  1.0649  0.7987  0.5663  0.6082

 Free energy of the ion-electron system (eV)
  ---------------------------------------------------
  alpha Z        PSCENC =       316.14514549
  Ewald energy   TEWEN  =    -14988.20341961
  -Hartree energ DENC   =      -108.20399341
  -exchange      EXHF   =         0.00000000
  -V(xc)+E(xc)   XCENC  =      -771.54176769
  PAW double counting   =     80285.02662085   -78537.95600653
  entropy T*S    EENTRO =        -0.05339068
  eigenvalues    EBANDS =      3070.74465093
  atomic energy  EATOM  =     10306.12861560
  Solvation  Ediel_sol  =         0.00000000
  ---------------------------------------------------
  free energy    TOTEN  =      -427.91354505 eV

  energy without entropy =     -427.86015436  energy(sigma->0) =     -427.88684970


--------------------------------------------------------------------------------------------------------




--------------------------------------- Iteration      1(  20)  ---------------------------------------


    POTLOK:  cpu time    0.0524: real time    0.0527
    SETDIJ:  cpu time    0.0349: real time    0.0350
    EDDIAG:  cpu time    0.3373: real time    0.3392
  RMM-DIIS:  cpu time    0.9206: real time    0.9320
    ORTHCH:  cpu time    0.0994: real time    0.1000
       DOS:  cpu time    0.0004: real time    0.0004
    CHARGE:  cpu time    0.0440: real time    0.0442
    MIXING:  cpu time    0.0020: real time    0.0020
    --------------------------------------------
      LOOP:  cpu time    1.4910: real time    1.5054

 eigenvalue-minimisations  :  1426
 total energy-change (2. order) :-0.2077766E-02  (-0.4224752E-03)
 number of electron     399.9999994 magnetization       0.5432816
 augmentation part      -23.4370114 magnetization      -0.0343716

 Broyden mixing:
  rms(total) = 0.13610E-01    rms(broyden)= 0.13607E-01
  rms(prec ) = 0.17917E-01
  weight for this iteration     100.00

 eigenvalues of (default mixing * dielectric matrix)
  average eigenvalue GAMMA=   1.3974
  3.3908  2.2741  1.7322  1.1331  0.8426  0.6339  0.6339  0.5389

 Free energy of the ion-electron system (eV)
  ---------------------------------------------------
  alpha Z        PSCENC =       316.14514549
  Ewald energy   TEWEN  =    -14988.20341961
  -Hartree energ DENC   =      -108.27615131
  -exchange      EXHF   =         0.00000000
  -V(xc)+E(xc)   XCENC  =      -771.52808967
  PAW double counting   =     80174.11789562   -78427.06140338
  entropy T*S    EENTRO =        -0.05670827
  eigenvalues    EBANDS =      3070.81849273
  atomic energy  EATOM  =     10306.12861560
  Solvation  Ediel_sol  =         0.00000000
  ---------------------------------------------------
  free energy    TOTEN  =      -427.91562281 eV

  energy without entropy =     -427.85891454  energy(sigma->0) =     -427.88726868


--------------------------------------------------------------------------------------------------------




--------------------------------------- Iteration      1(  21)  ---------------------------------------


    POTLOK:  cpu time    0.0525: real time    0.0528
    SETDIJ:  cpu time    0.0348: real time    0.0349
    EDDIAG:  cpu time    0.3382: real time    0.3401
  RMM-DIIS:  cpu time    0.9252: real time    0.9367
    ORTHCH:  cpu time    0.0990: real time    0.0996
       DOS:  cpu time    0.0004: real time    0.0004
    CHARGE:  cpu time    0.0441: real time    0.0443
    MIXING:  cpu time    0.0021: real time    0.0021
    --------------------------------------------
      LOOP:  cpu time    1.4962: real time    1.5109

 eigenvalue-minimisations  :  1439
 total energy-change (2. order) :-0.6698218E-03  (-0.1308871E-03)
 number of electron     399.9999994 magnetization       0.3345385
 augmentation part      -23.4369574 magnetization      -0.0528245

 Broyden mixing:
  rms(total) = 0.83443E-02    rms(broyden)= 0.83424E-02
  rms(prec ) = 0.96615E-02
  weight for this iteration     100.00

 eigenvalues of (default mixing * dielectric matrix)
  average eigenvalue GAMMA=   1.4069
  3.6795  2.1584  2.1584  1.1267  0.9544  0.8113  0.5323  0.6205  0.6205

 Free energy of the ion-electron system (eV)
  ---------------------------------------------------
  alpha Z        PSCENC =       316.14514549
  Ewald energy   TEWEN  =    -14988.20341961
  -Hartree energ DENC   =      -108.28695011
  -exchange      EXHF   =         0.00000000
  -V(xc)+E(xc)   XCENC  =      -771.52749993
  PAW double counting   =     80138.35092316   -78391.29683338
  entropy T*S    EENTRO =        -0.05771520
  eigenvalues    EBANDS =      3070.83144136
  atomic energy  EATOM  =     10306.12861560
  Solvation  Ediel_sol  =         0.00000000
  ---------------------------------------------------
  free energy    TOTEN  =      -427.91629263 eV

  energy without entropy =     -427.85857743  energy(sigma->0) =     -427.88743503


--------------------------------------------------------------------------------------------------------




--------------------------------------- Iteration      1(  22)  ---------------------------------------


    POTLOK:  cpu time    0.0524: real time    0.0527
    SETDIJ:  cpu time    0.0349: real time    0.0350
    EDDIAG:  cpu time    0.3379: real time    0.3398
  RMM-DIIS:  cpu time    0.9164: real time    0.9277
    ORTHCH:  cpu time    0.0993: real time    0.0999
       DOS:  cpu time    0.0004: real time    0.0004
    CHARGE:  cpu time    0.0440: real time    0.0442
    MIXING:  cpu time    0.0023: real time    0.0023
    --------------------------------------------
      LOOP:  cpu time    1.4876: real time    1.5019

 eigenvalue-minimisations  :  1419
 total energy-change (2. order) :-0.3357772E-03  (-0.6379754E-04)
 number of electron     399.9999994 magnetization       0.1788581
[...]
   -.111E+02 0.219E+01 0.192E+02   0.108E+02 -.196E+01 -.182E+02   0.707E-01 -.313E+00 -.173E+01   0.253E-02 0.178E-02 -.229E-03
   0.707E+01 0.609E+01 -.129E+02   -.600E+01 -.579E+01 0.142E+02   -.142E+01 -.108E+01 -.148E+01   -.373E-02 -.891E-03 -.522E-03
   0.879E+01 0.701E+01 -.152E+02   -.970E+01 -.680E+01 0.155E+02   0.298E+00 -.913E+00 0.223E+00   -.334E-02 0.181E-03 0.303E-03
   -.308E+01 0.175E+01 -.842E+01   0.359E+01 -.118E+01 0.885E+01   -.110E+01 -.121E+01 -.116E+01   0.154E-02 -.809E-03 0.925E-03
   0.122E+02 -.209E+01 -.161E+02   -.115E+02 0.660E+00 0.182E+02   -.182E+01 0.177E+01 -.246E+01   -.304E-02 0.488E-03 -.136E-02
   0.238E+01 -.106E+02 -.221E+02   -.263E+01 0.103E+02 0.213E+02   0.545E+00 0.391E+00 0.175E+01   -.318E-02 -.146E-02 -.539E-03
   -.130E+01 -.381E+01 0.159E+02   0.333E+01 0.461E+01 -.159E+02   -.260E+01 -.822E+00 -.455E+00   0.209E-02 -.190E-03 -.139E-03
   0.777E+01 -.753E+01 0.704E+01   -.651E+01 0.884E+01 -.853E+01   -.202E+01 -.166E+01 0.242E+01   -.178E-02 -.235E-02 -.959E-03
   -.757E+01 0.643E+01 -.177E+02   0.825E+01 -.489E+01 0.198E+02   -.377E+00 -.261E+01 -.208E+01   -.363E-02 -.193E-03 -.254E-04
   0.777E+01 0.146E+01 -.181E+02   -.711E+01 -.233E+01 0.191E+02   -.128E+01 0.497E+00 -.253E+00   -.285E-02 0.653E-03 -.460E-03
   -.372E+01 -.667E+01 -.193E+02   0.410E+01 0.609E+01 0.187E+02   -.374E+00 0.123E+01 0.394E+00   -.729E-03 0.167E-02 0.150E-03
   -.467E+00 -.164E+01 0.680E+01   0.555E+00 0.178E+01 -.709E+01   -.319E+00 -.370E+00 -.494E+00   -.191E-02 -.221E-02 -.301E-03
   -.223E+01 -.139E+01 0.120E+02   0.107E+01 0.214E+01 -.126E+02   0.108E+01 -.328E+00 0.149E+01   0.240E-02 -.172E-02 -.411E-03
   -.288E+01 -.231E+01 -.594E+01   0.299E+01 0.185E+01 0.474E+01   0.221E-01 0.977E+00 0.193E+01   0.288E-02 0.150E-02 0.898E-03
   -.518E+01 -.304E+01 -.205E+01   0.518E+01 0.505E+01 0.230E+01   0.337E+00 -.250E+01 -.766E+00   0.354E-02 0.175E-02 -.108E-04
   -.108E+02 0.331E+01 0.162E+02   0.114E+02 -.217E+01 -.153E+02   0.479E+00 -.135E+01 -.103E+01   0.197E-02 0.128E-02 -.543E-03
   0.202E+01 -.364E+01 0.167E+02   -.151E+01 0.487E+01 -.173E+02   -.827E+00 -.124E+01 -.113E+00   -.189E-02 -.176E-02 0.151E-03
   -.327E+01 0.426E+01 0.510E+01   0.465E+01 -.475E+01 -.443E+01   -.957E+00 -.435E-02 -.450E+00   -.108E-02 -.156E-02 -.511E-03
   0.235E+01 -.177E+01 -.651E+01   -.330E+01 0.297E+01 0.460E+01   0.184E+01 -.207E+01 0.369E+01   0.205E-02 -.185E-02 -.482E-03
   -.152E+02 0.316E+01 -.245E+01   0.134E+02 -.239E+01 0.291E+01   0.336E+01 -.156E+01 -.146E+01   0.309E-02 -.164E-02 -.163E-03
   0.158E+02 -.799E+01 0.103E+02   -.147E+02 0.707E+01 -.101E+02   -.286E+01 0.207E+01 -.476E+00   -.284E-02 -.672E-03 -.111E-02
   -.112E+02 0.159E+01 -.752E+01   0.101E+02 -.174E+01 0.929E+01   0.186E+01 -.324E+00 -.234E+01   0.183E-02 0.245E-03 -.923E-03
   0.715E+01 -.281E+01 0.197E+02   -.674E+01 0.378E+01 -.198E+02   -.431E+00 0.180E+00 -.118E+00   -.212E-02 0.209E-02 0.109E-02
   -.530E+01 -.140E+02 -.811E+01   0.551E+01 0.132E+02 0.693E+01   0.397E+00 0.184E+01 0.295E+01   -.256E-02 -.175E-02 0.132E-02
   0.908E+01 -.111E+02 -.126E+02   -.906E+01 0.986E+01 0.136E+02   -.203E+00 0.262E+01 -.715E+00   -.142E-03 -.154E-02 0.689E-03
   -.106E+02 -.859E+01 0.153E+02   0.106E+02 0.875E+01 -.158E+02   0.189E+01 0.725E+00 0.342E+00   -.827E-04 -.670E-03 -.117E-02
   -.681E+01 0.399E+01 0.923E+01   0.808E+01 -.550E+01 -.844E+01   -.129E+00 0.230E+01 -.133E+01   0.245E-02 0.144E-02 -.326E-03
   0.416E+01 0.590E+01 -.143E+02   -.374E+01 -.488E+01 0.125E+02   -.630E+00 -.171E+01 0.294E+01   0.186E-02 -.201E-02 -.258E-03
   -.598E+01 0.860E+01 -.158E+01   0.495E+01 -.812E+01 0.665E+00   0.215E+01 -.169E+01 0.164E+01   -.212E-02 0.143E-02 0.146E-02
   0.382E+01 -.691E+01 -.763E+01   -.337E+01 0.632E+01 0.803E+01   -.847E+00 0.902E+00 -.598E+00   0.740E-03 -.181E-02 -.490E-03
   -.409E+01 -.482E+01 0.139E+02   0.436E+01 0.545E+01 -.148E+02   -.621E-01 0.642E+00 0.128E+01   0.480E-03 0.211E-02 0.812E-03
   -.316E+01 0.804E+01 0.139E+02   0.213E+01 -.698E+01 -.127E+02   0.134E+01 -.236E+01 -.188E+01   -.170E-02 0.107E-02 -.108E-02
   -.774E+01 0.669E+01 -.135E+02   0.715E+01 -.899E+01 0.147E+02   0.158E+01 0.249E+01 -.930E+00   -.131E-03 -.310E-03 0.411E-03
   -.103E+02 0.129E+02 0.119E+02   0.104E+02 -.145E+02 -.110E+02   0.131E+01 0.120E+01 0.291E-01   0.309E-03 0.215E-02 -.290E-03
   -.384E+01 0.464E+01 -.199E+02   0.198E+01 -.427E+01 0.203E+02   0.334E+01 -.105E+01 0.180E+00   0.268E-02 -.138E-02 0.106E-02
   -.692E+01 0.999E+01 -.527E+01   0.585E+01 -.100E+02 0.548E+01   0.175E+01 -.406E+00 -.723E+00   -.649E-03 0.195E-02 -.102E-02
   0.345E+01 -.112E+02 -.195E+02   -.322E+01 0.103E+02 0.186E+02   -.120E+01 0.172E+01 0.140E+01   0.344E-02 0.156E-02 0.779E-03
   0.107E+02 -.212E+01 -.160E+02   -.972E+01 0.120E+01 0.161E+02   -.161E+01 0.116E+01 0.371E+00   0.357E-02 -.177E-02 0.109E-02
   0.909E+01 0.757E+01 0.193E+02   -.833E+01 -.622E+01 -.184E+02   -.156E+01 -.200E+01 -.113E+01   -.161E-02 0.865E-03 0.415E-03
   0.359E+01 0.666E+01 0.129E+02   -.424E+01 -.712E+01 -.154E+02   0.100E+01 0.631E+00 0.380E+01   -.316E-03 0.218E-02 0.370E-03
   -.178E+01 -.125E+01 -.988E+00   0.557E-01 0.293E+01 0.152E+01   0.205E+01 -.194E+01 -.162E+01   -.343E-02 -.126E-02 0.280E-03
   0.163E+01 0.280E+02 0.164E+02   -.166E+01 -.259E+02 -.160E+02   -.363E+00 -.448E+01 -.347E+00   -.176E-02 0.132E-02 0.892E-03
   0.682E-01 -.110E+02 0.317E+01   -.653E+00 0.112E+02 -.323E+01   0.550E+00 -.302E-01 0.463E+00   0.112E-02 -.121E-02 -.868E-03
   0.817E+01 0.118E+02 -.146E+02   -.793E+01 -.101E+02 0.151E+02   -.133E+01 -.266E+01 -.374E+00   -.439E-02 0.132E-02 -.741E-03
   0.552E+01 0.180E+01 0.416E+01   -.372E+01 -.291E+01 -.330E+01   -.257E+01 0.104E+01 -.774E+00   0.124E-02 0.224E-02 0.969E-03
   0.832E+01 0.450E+00 0.115E+02   -.789E+01 -.364E+00 -.123E+02   -.120E+01 -.564E+00 0.979E+00   0.190E-02 -.202E-02 -.740E-03
   -.406E+01 -.396E+01 -.136E+01   0.373E+01 0.356E+01 0.210E+01   0.644E+00 0.825E+00 -.650E+00   0.360E-03 -.467E-03 0.145E-02
   0.266E+01 0.185E+01 -.136E+02   -.294E+01 -.446E+01 0.127E+02   0.418E+00 0.322E+01 0.722E+00   -.386E-02 0.174E-02 -.945E-03
   -.737E+01 -.156E+02 0.108E+02   0.838E+01 0.158E+02 -.108E+02   -.110E+01 0.324E+00 -.770E+00   -.246E-02 -.933E-03 0.654E-04
   0.811E+01 -.471E+01 0.395E+00   -.821E+01 0.596E+01 0.128E+01   -.430E+00 -.132E+01 -.205E+01   0.313E-02 0.276E-04 -.295E-03
   0.726E+01 0.214E+01 -.663E+01   -.799E+01 -.332E+01 0.739E+01   -.138E+00 0.119E+01 -.112E+01   0.284E-02 -.201E-02 0.938E-03
   0.111E+02 0.228E+01 -.175E+02   -.108E+02 -.237E+01 0.167E+02   -.129E+01 0.685E+00 0.158E+01   -.201E-02 0.182E-03 -.718E-03
   0.484E+01 -.214E+01 0.193E+02   -.393E+01 0.252E+01 -.199E+02   -.895E+00 -.128E+00 -.429E+00   -.113E-02 0.497E-04 -.857E-03
   -.495E+01 -.894E+01 0.158E+02   0.530E+01 0.903E+01 -.164E+02   -.565E+00 0.417E+00 -.795E-02   -.214E-02 -.803E-03 -.113E-03
   0.575E+01 -.410E+01 -.527E+01   -.599E+01 0.439E+01 0.622E+01   -.454E+00 0.334E-01 -.738E+00   0.230E-02 0.796E-03 0.166E-03
   0.397E+01 0.504E+01 -.144E+02   -.386E+01 -.508E+01 0.154E+02   -.610E+00 -.163E+00 -.123E+01   -.435E-03 0.423E-03 0.404E-03
   -.539E+01 -.521E+01 0.395E+01   0.468E+01 0.510E+01 -.337E+01   0.126E+01 0.966E+00 -.508E+00   -.786E-03 0.176E-02 0.800E-03
   0.248E+01 -.752E+01 0.185E+02   -.177E+00 0.834E+01 -.189E+02   -.278E+01 -.828E+00 -.436E+00   0.487E-04 -.214E-02 -.789E-04
   0.600E+01 -.600E+01 -.170E+02   -.563E+01 0.556E+01 0.172E+02   -.123E+01 0.101E+01 0.675E+00   -.133E-02 -.687E-03 -.131E-02
   -.285E+01 0.113E+01 0.136E+02   0.344E+01 -.233E+01 -.145E+02   -.604E+00 0.119E+01 0.989E+00   0.214E-02 0.234E-02 -.460E-03
   0.926E+01 -.999E+01 0.230E+02   -.877E+01 0.936E+01 -.225E+02   -.133E+01 0.218E+01 -.119E+01   0.222E-02 0.325E-03 -.642E-03
   0.238E+01 -.380E+01 0.857E+01   -.263E+01 0.259E+01 -.695E+01   -.401E+00 0.215E+01 -.353E+01   0.159E-02 -.226E-02 0.480E-03
   -.194E+01 -.114E+01 0.161E+02   0.127E+01 0.284E+01 -.179E+02   0.133E+01 -.249E+01 0.170E+01   0.114E-02 -.251E-02 -.986E-03
   -.638E+01 0.495E+01 -.243E+02   0.677E+01 -.474E+01 0.234E+02   0.460E+00 -.168E+01 0.157E+01   0.336E-02 0.177E-02 0.925E-04
   -.187E+02 -.286E+02 -.111E+02   0.193E+02 0.277E+02 0.112E+02   0.863E-01 0.354E+01 0.497E+00   -.292E-03 0.470E-04 -.598E-03
   -.647E+01 0.929E+00 -.123E+02   0.650E+01 0.429E+00 0.132E+02   -.332E+00 -.232E+01 -.114E+01   -.207E-04 0.157E-02 -.847E-03
   0.895E+01 -.224E+01 0.136E+01   -.925E+01 0.201E+01 -.749E+00   -.231E+00 0.272E+00 -.912E+00   -.365E-03 -.805E-03 0.915E-03
   0.849E+00 0.101E+02 -.108E+02   -.144E+01 -.889E+01 0.898E+01   0.533E+00 -.214E+01 0.227E+01   0.310E-02 -.853E-03 0.245E-04
   -.224E+00 0.108E+02 -.151E+02   0.102E+01 -.111E+02 0.142E+02   -.115E+01 0.127E+00 0.114E+01   0.134E-02 0.931E-03 -.392E-03
   -.997E+01 -.641E+01 -.928E+01   0.991E+01 0.529E+01 0.963E+01   0.687E+00 0.210E+01 -.456E+00   -.183E-02 -.168E-02 0.739E-03
   -.183E+01 -.165E+01 -.292E+02   0.828E+00 0.142E+01 0.289E+02   0.249E+01 0.623E+00 0.158E+01   -.156E-02 0.141E-02 -.448E-03
 -----------------------------------------------------------------------------------------------
   0.311E+01 0.684E+01 0.315E-01   -.209E-13 -.777E-13 0.288E-12   -.311E+01 -.684E+01 -.198E-01   0.103E-02 0.137E-05 -.607E-03
 
 
 POSITION                                       TOTAL-FORCE (eV/Angst)
 -----------------------------------------------------------------------------------
      3.16856      6.00980      3.68161        -0.838532     -0.482789     -1.572534
      6.27861      1.04519      5.16595        -0.279664     -0.110190     -0.157226
      1.46943      5.57683      7.99265         0.356044     -1.603287     -0.032253
      7.27761      5.34167      4.87778        -0.494845      0.679610     -0.553792
      6.32419      8.67889      9.04292        -0.240661     -0.486349     -0.005802
      0.07863      7.25265      8.14566        -1.320684      0.145102      0.090759
      5.39621      6.49657      8.97218        -0.561677      0.117503      0.496527
      6.83722      4.73103      9.35616         1.442309      0.594992      0.180695
      7.08596      7.10194      0.44962        -0.341598     -0.781432      0.029909
      0.35519      5.62657      4.38518        -0.635887     -0.308253     -1.466681
      9.53302      2.09821      2.63964         2.349015      0.187684     -0.188449
      3.92647      4.55278      2.08983        -0.050148     -0.780519      0.025592
      9.09727      7.57294      4.15516         0.621770      1.030193     -0.387676
      5.32479      8.71314      1.17514         0.736101      2.145039      0.358615
      8.14423      0.46831      6.81951         0.409931     -0.400901      0.592901
      0.47403      3.25807      8.60934         0.841124      0.808045     -0.703862
      2.08462      9.16654      5.82836        -0.899178      0.299460     -0.871591
      0.24541      9.82147      4.14152        -0.070976      0.144166      0.942264
      7.51888      9.28391      4.54493        -0.097400      0.869255      1.207575
      7.35840      8.48101      6.80814        -1.396207     -0.725086     -0.287438
      7.61802      4.38321      7.11904        -0.308277      0.540077     -0.920326
      9.56211      8.91640      6.13049         0.753036      0.331815      0.108416
      4.44625      1.79422      3.67972        -0.802435     -0.387429     -1.130831
      8.83384      9.00532      8.45238         0.729303      0.726993      0.986295
      8.43388      0.17122      2.65628        -0.031978     -1.966749      0.370155
      6.04179      2.52894      9.45171        -0.535947     -1.568315      0.383659
      0.02359      8.69824      2.13450        -1.278599      0.571385     -1.137167
      9.13500      2.63855      6.74576         1.251589     -0.801359     -0.026954
      8.30421      2.73255      8.93365         0.509264      0.112732      0.524801
      5.92744      7.66060      5.10550        -0.179175     -0.075858     -0.767151
      0.29138      9.85405      0.12468        -0.353908     -0.775186     -0.132805
      1.23826      4.32929      2.61686        -0.607727     -0.701285      0.455845
      7.70307      3.15181      0.94429        -0.588321     -0.644660     -0.740897
      1.61518      7.88457     10.09152        -1.127284      0.339656     -0.363439
      1.16985      1.81319      0.00611         0.288510      0.067754      0.962978
      4.60072      9.56074      5.36851        -0.564522     -0.018459     -0.441806
      2.06991      1.56927      7.96594        -0.762739     -0.352047      0.934498
     10.07529      3.58953      0.87472         0.303031     -1.071000      0.082056
      9.52828      7.52697      0.10485        -0.612406     -0.368576      0.737233
      8.63793      5.33312      0.73864         0.003065      0.659585     -0.206886
      9.81213      1.01462      8.51903        -0.232916     -0.231214     -0.784750
      5.75638      0.02338      7.28971        -0.074790      0.425786      0.857728
      4.19986      8.07310      3.20531         0.135415      0.520241      0.727700
      5.64068      6.29839      3.26390         0.341842     -0.485127     -0.515658
      4.74610      8.08108      7.35095         1.110478     -0.204160     -0.152862
      0.60980      0.87263      6.26801        -0.324342     -0.009668     -0.715176
      8.84211      1.22197      4.75733         0.422232     -0.497974      0.223613
      4.71362      2.97939      5.53554         0.890582     -0.870194      1.780351
      4.83304      0.35936      9.60270         1.635863     -0.786001     -0.997014
      1.04360      9.43094      8.05823        -1.775559      1.147925     -0.357750
      3.87025      8.37029      9.66686         0.784649     -0.474316     -0.567940
      0.87289      7.17893      5.98315        -0.025071      1.155125     -0.144638
      1.30731      1.76307      4.00485         0.605362      1.062682      1.768824
      2.65446      2.37993      2.11236        -0.178892      1.357740      0.239596
      3.33785      9.88022      7.65726         1.871217      0.885355     -0.094050
      4.62911      5.17082      5.35526         1.149353      0.790199     -0.542873
      6.98002      2.01273      2.97296        -0.209810     -0.696424      1.090888
      1.48403      7.85626      3.66991         1.119136     -1.212514      0.728809
      3.58920      2.15782     10.00510        -0.393469      0.310535     -0.191923
      3.47872      7.37695      5.43146         0.210272      1.275350      0.395590
      2.43507      7.76376      7.83930         0.308994     -1.296879     -0.679040
      8.01815      9.17689      0.60808         0.982310      0.198378      0.223301
      3.71943      5.82698      7.37441         1.414426     -0.417214      0.856327
      3.84005      0.58142      1.53381         1.481444     -0.686975      0.641021
      3.02181      6.10375      9.60925         0.677362     -0.430513     -0.517391
      6.35332      4.94802      1.43558        -0.975346      0.864509      0.485433
      5.30025      2.65190      1.47520        -0.661185      0.236711      0.421796
     10.14634      4.81435      6.54509        -0.803591     -0.646449     -0.225449
      8.67641      6.57604      6.11220         0.354826      0.179828      1.341489
      1.13322      0.60259      2.12428         0.327545     -0.255666     -1.090597
      2.23059      5.43456      5.72788        -0.401168     -2.375679      0.003301
      7.44312      3.09368      5.09552        -0.033203      0.194134      0.407149
      0.06352      6.45000      2.20019        -1.093448     -0.989331      0.134978
      7.95189      6.80341      8.43397        -0.761540     -0.076750      0.084736
      6.72560      2.20456      7.18351        -0.769275     -0.479867      0.132997
      2.80715     10.03733      3.73148         0.309761      0.422045      0.090664
      0.64861      5.53334     10.13594         0.134369      0.608773     -0.181810
      9.97295      3.38105      4.65517        -0.087516      0.531422     -0.789170
      5.77926      3.93537      3.63115        -0.532132     -0.067922     -0.372706
      6.53380      0.66697      1.19318        -0.868421      0.004223     -0.358654
      2.33989      3.97704      0.31138        -1.071676      0.596707      0.836312
      2.97489      3.73778      8.27261         0.007357      0.253389     -0.988844
      1.65051      3.08716      6.26546        -0.223867      0.505192     -0.589467
      4.66637      4.37600     10.03154        -0.690773      0.316713      0.212293
      2.64573      8.80907      1.69745        -0.502110     -0.206274     -0.276075
      9.15018      4.89940      8.71513         0.552609      0.849804      0.076743
      3.12674      1.22632      5.75556        -0.482320     -0.012314     -0.856074
      2.53309     10.18364      9.79684        -0.855584      0.560268      0.868467
      6.20374      6.18486      6.82347        -0.019454     -0.012321      0.081127
      5.31068      3.98686      7.68426        -0.835272      1.554396     -0.685544
      7.34074      0.51231      9.23309        -0.656778      0.935845     -1.914826
      4.34462      1.90717      7.68749         0.666492     -0.791624     -0.107337
      4.52631      6.68978      1.04310         0.848596     -1.467408      0.669143
      8.30730      3.88488      3.03172         0.704195      2.638761      0.629489
      8.00228      6.19865      2.78788        -0.305680     -0.965135     -0.264048
      2.88330      3.59109      4.23977        -0.524555      0.041331     -0.304649
      5.56981     10.07245      3.17697        -0.056000     -0.919577      0.490477
      7.18422      8.29165      2.56003        -0.351283     -0.197669      0.194782
      8.92879      1.20895      0.58693         0.626309      0.985529     -0.102181
      2.19542      6.28481      1.51947         1.490712      0.392946      1.298164
 -----------------------------------------------------------------------------------
    total drift:                               -0.005095     -0.000766      0.011126


--------------------------------------------------------------------------------------------------------



  FREE ENERGIE OF THE ION-ELECTRON SYSTEM (eV)
  ---------------------------------------------------
  free  energy   TOTEN  =      -427.91683734 eV

  energy  without entropy=     -427.85822719  energy(sigma->0) =     -427.88753227
 


--------------------------------------------------------------------------------------------------------


    POTLOK:  cpu time    0.0900: real time    0.0903


--------------------------------------------------------------------------------------------------------


     LOOP+:  cpu time   33.3314: real time   37.0532
    4ORBIT:  cpu time    0.0000: real time    0.0000

 total amount of memory used by VASP MPI-rank0    53949. kBytes
=======================================================================

   base      :      30000. kBytes
   nonlr-proj:       8281. kBytes
   fftplans  :       1377. kBytes
   grid      :       7520. kBytes
   one-center:        614. kBytes
   wavefun   :       6157. kBytes
 
  
  
 General timing and accounting informations for this job:
 ========================================================
  
                  Total CPU time used (sec):       34.458
                            User time (sec):       33.068
                          System time (sec):        1.390
                         Elapsed time (sec):       42.545
  
                   Maximum memory used (kb):      181232.
                   Average memory used (kb):           0.
  
                          Minor page faults:       101733
                          Major page faults:            0
                 Voluntary context switches:          847
