BEGIN_CFG
 Size
    100
 Supercell
        10.211495      0.000000      0.000000
         0.000000     10.211495      0.000000
         0.000000      0.000000     10.211495
 AtomData:  id type       cartes_x      cartes_y      cartes_z           fx          fy          fz
             1    0       3.168560      6.009800      3.681610    -0.838532   -0.482789   -1.572534
             2    0       6.278610      1.045190      5.165950    -0.279664   -0.110190   -0.157226
             3    0       1.469430      5.576830      7.992650     0.356044   -1.603287   -0.032253
             4    0       7.277610      5.341670      4.877780    -0.494845    0.679610   -0.553792
             5    0       6.324190      8.678890      9.042920    -0.240661   -0.486349   -0.005802
             6    0       0.078630      7.252650      8.145660    -1.320684    0.145102    0.090759
             7    0       5.396210      6.496570      8.972180    -0.561677    0.117503    0.496527
             8    0       6.837220      4.731030      9.356160     1.442309    0.594992    0.180695
             9    0       7.085960      7.101940      0.449620    -0.341598   -0.781432    0.029909
            10    0       0.355190      5.626570      4.385180    -0.635887   -0.308253   -1.466681
            11    0       9.533020      2.098210      2.639640     2.349015    0.187684   -0.188449
            12    0       3.926470      4.552780      2.089830    -0.050148   -0.780519    0.025592
            13    0       9.097270      7.572940      4.155160     0.621770    1.030193   -0.387676
            14    0       5.324790      8.713140      1.175140     0.736101    2.145039    0.358615
            15    0       8.144230      0.468310      6.819510     0.409931   -0.400901    0.592901
            16    0       0.474030      3.258070      8.609340     0.841124    0.808045   -0.703862
            17    0       2.084620      9.166540      5.828360    -0.899178    0.299460   -0.871591
            18    0       0.245410      9.821470      4.141520    -0.070976    0.144166    0.942264
            19    0       7.518880      9.283910      4.544930    -0.097400    0.869255    1.207575
            20    0       7.358400      8.481010      6.808140    -1.396207   -0.725086   -0.287438
            21    0       7.618020      4.383210      7.119040    -0.308277    0.540077   -0.920326
            22    0       9.562110      8.916400      6.130490     0.753036    0.331815    0.108416
            23    0       4.446250      1.794220      3.679720    -0.802435   -0.387429   -1.130831
            24    0       8.833840      9.005320      8.452380     0.729303    0.726993    0.986295
            25    0       8.433880      0.171220      2.656280    -0.031978   -1.966749    0.370155
            26    0       6.041790      2.528940      9.451710    -0.535947   -1.568315    0.383659
            27    0       0.023590      8.698240      2.134500    -1.278599    0.571385   -1.137167
            28    0       9.135000      2.638550      6.745760     1.251589   -0.801359   -0.026954
            29    0       8.304210      2.732550      8.933650     0.509264    0.112732    0.524801
            30    0       5.927440      7.660600      5.105500    -0.179175   -0.075858   -0.767151
            31    0       0.291380      9.854050      0.124680    -0.353908   -0.775186   -0.132805
            32    0       1.238260      4.329290      2.616860    -0.607727   -0.701285    0.455845
            33    0       7.703070      3.151810      0.944290    -0.588321   -0.644660   -0.740897
            34    0       1.615180      7.884570     10.091520    -1.127284    0.339656   -0.363439
            35    0       1.169850      1.813190      0.006110     0.288510    0.067754    0.962978
            36    0       4.600720      9.560740      5.368510    -0.564522   -0.018459   -0.441806
            37    0       2.069910      1.569270      7.965940    -0.762739   -0.352047    0.934498
            38    0      10.075290      3.589530      0.874720     0.303031   -1.071000    0.082056
            39    0       9.528280      7.526970      0.104850    -0.612406   -0.368576    0.737233
            40    0       8.637930      5.333120      0.738640     0.003065    0.659585   -0.206886
            41    0       9.812130      1.014620      8.519030    -0.232916   -0.231214   -0.784750
            42    0       5.756380      0.023380      7.289710    -0.074790    0.425786    0.857728
            43    0       4.199860      8.073100      3.205310     0.135415    0.520241    0.727700
            44    0       5.640680      6.298390      3.263900     0.341842   -0.485127   -0.515658
            45    0       4.746100      8.081080      7.350950     1.110478   -0.204160   -0.152862
            46    0       0.609800      0.872630      6.268010    -0.324342   -0.009668   -0.715176
            47    0       8.842110      1.221970      4.757330     0.422232   -0.497974    0.223613
            48    0       4.713620      2.979390      5.535540     0.890582   -0.870194    1.780351
            49    0       4.833040      0.359360      9.602700     1.635863   -0.786001   -0.997014
            50    0       1.043600      9.430940      8.058230    -1.775559    1.147925   -0.357750
            51    0       3.870250      8.370290      9.666860     0.784649   -0.474316   -0.567940
            52    0       0.872890      7.178930      5.983150    -0.025071    1.155125   -0.144638
            53    0       1.307310      1.763070      4.004850     0.605362    1.062682    1.768824
            54    0       2.654460      2.379930      2.112360    -0.178892    1.357740    0.239596
            55    0       3.337850      9.880220      7.657260     1.871217    0.885355   -0.094050
            56    0       4.629110      5.170820      5.355260     1.149353    0.790199   -0.542873
            57    0       6.980020      2.012730      2.972960    -0.209810   -0.696424    1.090888
            58    0       1.484030      7.856260      3.669910     1.119136   -1.212514    0.728809
            59    0       3.589200      2.157820     10.005100    -0.393469    0.310535   -0.191923
            60    0       3.478720      7.376950      5.431460     0.210272    1.275350    0.395590
            61    0       2.435070      7.763760      7.839300     0.308994   -1.296879   -0.679040
            62    0       8.018150      9.176890      0.608080     0.982310    0.198378    0.223301
            63    0       3.719430      5.826980      7.374410     1.414426   -0.417214    0.856327
            64    0       3.840050      0.581420      1.533810     1.481444   -0.686975    0.641021
            65    0       3.021810      6.103750      9.609250     0.677362   -0.430513   -0.517391
            66    0       6.353320      4.948020      1.435580    -0.975346    0.864509    0.485433
            67    0       5.300250      2.651900      1.475200    -0.661185    0.236711    0.421796
            68    0      10.146340      4.814350      6.545090    -0.803591   -0.646449   -0.225449
            69    0       8.676410      6.576040      6.112200     0.354826    0.179828    1.341489
            70    0       1.133220      0.602590      2.124280     0.327545   -0.255666   -1.090597
            71    0       2.230590      5.434560      5.727880    -0.401168   -2.375679    0.003301
            72    0       7.443120      3.093680      5.095520    -0.033203    0.194134    0.407149
            73    0       0.063520      6.450000      2.200190    -1.093448   -0.989331    0.134978
            74    0       7.951890      6.803410      8.433970    -0.761540   -0.076750    0.084736
            75    0       6.725600      2.204560      7.183510    -0.769275   -0.479867    0.132997
            76    0       2.807150     10.037330      3.731480     0.309761    0.422045    0.090664
            77    0       0.648610      5.533340     10.135940     0.134369    0.608773   -0.181810
            78    0       9.972950      3.381050      4.655170    -0.087516    0.531422   -0.789170
            79    0       5.779260      3.935370      3.631150    -0.532132   -0.067922   -0.372706
            80    0       6.533800      0.666970      1.193180    -0.868421    0.004223   -0.358654
            81    0       2.339890      3.977040      0.311380    -1.071676    0.596707    0.836312
            82    0       2.974890      3.737780      8.272610     0.007357    0.253389   -0.988844
            83    0       1.650510      3.087160      6.265460    -0.223867    0.505192   -0.589467
            84    0       4.666370      4.376000     10.031540    -0.690773    0.316713    0.212293
            85    0       2.645730      8.809070      1.697450    -0.502110   -0.206274   -0.276075
            86    0       9.150180      4.899400      8.715130     0.552609    0.849804    0.076743
            87    0       3.126740      1.226320      5.755560    -0.482320   -0.012314   -0.856074
            88    0       2.533090     10.183640      9.796840    -0.855584    0.560268    0.868467
            89    0       6.203740      6.184860      6.823470    -0.019454   -0.012321    0.081127
            90    0       5.310680      3.986860      7.684260    -0.835272    1.554396   -0.685544
            91    0       7.340740      0.512310      9.233090    -0.656778    0.935845   -1.914826
            92    0       4.344620      1.907170      7.687490     0.666492   -0.791624   -0.107337
            93    0       4.526310      6.689780      1.043100     0.848596   -1.467408    0.669143
            94    0       8.307300      3.884880      3.031720     0.704195    2.638761    0.629489
            95    0       8.002280      6.198650      2.787880    -0.305680   -0.965135   -0.264048
            96    0       2.883300      3.591090      4.239770    -0.524555    0.041331   -0.304649
            97    0       5.569810     10.072450      3.176970    -0.056000   -0.919577    0.490477
            98    0       7.184220      8.291650      2.560030    -0.351283   -0.197669    0.194782
            99    0       8.928790      1.208950      0.586930     0.626309    0.985529   -0.102181
           100    0       2.195420      6.284810      1.519470     1.490712    0.392946    1.298164
 Energy
       -427.916837340000
 PlusStress:  xx          yy          zz          yz          xz          xy
       371.07391   422.01583   361.78302    16.55688     9.05163    -7.63306
 Feature   EFS_by	VASP
END_CFG

