<?xml version="1.0" encoding="ISO-8859-1"?>
<modeling>
 <generator>
  <i name="program" type="string">vasp </i>
  <i name="version" type="string">5.4.4.18Apr17-6-g9f103f2a35  </i>
  <i name="subversion" type="string">(build Sep 16 2020 16:20:45) complex            parallel </i>
  <i name="platform" type="string">LinuxIFC </i>
  <i name="date" type="string">2021 08 09 </i>
  <i name="time" type="string">15:43:10 </i>
 </generator>
 <incar>
  <i type="string" name="PREC">normal</i>
  <i type="string" name="ALGO"> Very Fast</i>
  <i type="int" name="ISPIN">     2</i>
  <i type="int" name="NELM">    60</i>
  <i type="int" name="NELMIN">     4</i>
  <i name="EDIFF">      0.00001000</i>
  <i type="int" name="ISYM">     0</i>
  <i type="string" name="LREAL"> auto</i>
  <i type="int" name="ISMEAR">     0</i>
  <i name="SIGMA">      0.05000000</i>
  <i type="logical" name="LWAVE"> F  </i>
  <i type="logical" name="LCHARG"> F  </i>
  <v type="int" name="KPOINT_BSE">    -1     0     0     0</v>
  <i type="int" name="NELM">    60</i>
 </incar>
 <structure name="primitive_cell" >
  <crystal>
   <varray name="basis" >
    <v>      10.21149500       0.00000000       0.00000000 </v>
    <v>       0.00000000      10.21149500       0.00000000 </v>
    <v>       0.00000000       0.00000000      10.21149500 </v>
   </varray>
   <i name="volume">   1064.79986425 </i>
   <varray name="rec_basis" >
    <v>       0.09792885       0.00000000       0.00000000 </v>
    <v>       0.00000000       0.09792885       0.00000000 </v>
    <v>       0.00000000       0.00000000       0.09792885 </v>
   </varray>
  </crystal>
  <varray name="positions" >
   <v>       0.31029300      -0.41146700       0.36053600 </v>
   <v>       0.34066700      -0.27758400      -0.46810300 </v>
   <v>       0.38451500       0.44584900       0.20465500 </v>
   <v>       0.21843900      -0.46780000      -0.43907500 </v>
   <v>       0.41128700      -0.20941100       0.31389200 </v>
   <v>       0.45332300      -0.49362800      -0.47556600 </v>
   <v>       0.21499500      -0.38453600       0.14880000 </v>
   <v>       0.28235800       0.35167100       0.41519600 </v>
   <v>       0.14532900      -0.23064500       0.35939000 </v>
   <v>      -0.44761500      -0.38320600       0.31963000 </v>
   <v>       0.12126100       0.42396200       0.25626600 </v>
   <v>       0.03478300      -0.44899600       0.42943600 </v>
   <v>       0.44325600      -0.34487800       0.10215000 </v>
   <v>      -0.43404400       0.38538600       0.35559400 </v>
   <v>       0.08548150      -0.29697600      -0.41407700 </v>
   <v>       0.00622000      -0.36835900       0.21546200 </v>
   <v>       0.25909300      -0.13733800       0.16622900 </v>
   <v>      -0.41953300      -0.24980600       0.49997600 </v>
   <v>       0.36424000      -0.42937100      -0.27783200 </v>
   <v>       0.46159900       0.29176800      -0.45791100 </v>
   <v>       0.20414400      -0.10233100      -0.42923500 </v>
   <v>       0.25994800       0.23306400       0.20686100 </v>
   <v>       0.22914300       0.38946700       0.03049280 </v>
   <v>      -0.37782700       0.48455400       0.14058500 </v>
   <v>       0.27490100      -0.01705600       0.36542000 </v>
   <v>       0.45054300      -0.06372800      -0.47426800 </v>
   <v>       0.16163300       0.30232200      -0.38643100 </v>
   <v>      -0.47854900      -0.14673200       0.11508000 </v>
   <v>       0.29592200      -0.40226700      -0.05897700 </v>
   <v>      -0.28731200      -0.47689600       0.47767500 </v>
   <v>      -0.39247500      -0.39432400      -0.33178500 </v>
   <v>       0.43541600       0.17570600       0.36035100 </v>
   <v>      -0.02336000       0.33110200       0.45587500 </v>
   <v>       0.00231000      -0.14819100       0.20902900 </v>
   <v>       0.45697200       0.42853700      -0.01762300 </v>
   <v>      -0.00638100       0.47146400      -0.35904700 </v>
   <v>       0.46478000      -0.20862900      -0.28013000 </v>
   <v>       0.15817300      -0.22787300      -0.01174900 </v>
   <v>      -0.48095300       0.25969800       0.14446500 </v>
   <v>       0.06351760      -0.45812600      -0.00739900 </v>
   <v>       0.23846400      -0.23970400      -0.23230600 </v>
   <v>      -0.10911500      -0.25839100       0.40691000 </v>
   <v>       0.12802300       0.17265500       0.39219000 </v>
   <v>       0.14390000      -0.45386700      -0.21728900 </v>
   <v>      -0.45455500      -0.01361700       0.31111700 </v>
   <v>      -0.29645800      -0.18800800       0.25070100 </v>
   <v>       0.02403290      -0.03819500       0.40557400 </v>
   <v>       0.37900900      -0.18030700      -0.05333500 </v>
   <v>      -0.21634600      -0.39297300       0.27301400 </v>
   <v>      -0.01333800       0.35151900       0.08566010 </v>
   <v>      -0.47993100       0.39042900      -0.24748900 </v>
   <v>       0.29132800       0.36603700      -0.18987300 </v>
   <v>      -0.30608000      -0.30451500       0.04403030 </v>
   <v>       0.30619800       0.12009200      -0.43636500 </v>
   <v>       0.37605200       0.05693750       0.15020400 </v>
   <v>      -0.15032900      -0.35601600      -0.40143900 </v>
   <v>      -0.27110400       0.30296100       0.49899800 </v>
   <v>      -0.06359400      -0.12682700      -0.39964800 </v>
   <v>      -0.47155500      -0.36379800      -0.12136500 </v>
   <v>       0.11097500       0.05901050       0.20802800 </v>
   <v>      -0.06690600      -0.26289200       0.01026820 </v>
   <v>       0.35148600       0.21131300      -0.02021200 </v>
   <v>      -0.26368500      -0.09083700       0.44508000 </v>
   <v>      -0.18647600       0.38044200       0.29689300 </v>
   <v>       0.32687200      -0.03244100      -0.25013300 </v>
   <v>      -0.31645500       0.19710400       0.29113900 </v>
   <v>       0.00770000      -0.28975600      -0.20230500 </v>
   <v>      -0.06644200       0.20547500       0.25849700 </v>
   <v>      -0.15409700      -0.47773400       0.07233370 </v>
   <v>      -0.27940000      -0.16946400      -0.33328700 </v>
   <v>      -0.25397600       0.42924300      -0.30284100 </v>
   <v>       0.42546400       0.18676700      -0.24717300 </v>
   <v>       0.24806300      -0.00272800      -0.04060700 </v>
   <v>       0.11456200       0.17756400       0.00059848 </v>
   <v>       0.10219900      -0.07643900      -0.21086700 </v>
   <v>      -0.33043900       0.46330400      -0.08376200 </v>
   <v>       0.02853440      -0.03500400       0.01221000 </v>
   <v>      -0.24564700       0.30865300       0.09247370 </v>
   <v>      -0.38514300       0.10235400      -0.49410400 </v>
   <v>      -0.43628400       0.00228916      -0.28612700 </v>
   <v>      -0.10542000       0.25839000      -0.33939500 </v>
   <v>       0.05971690       0.08545560      -0.38618100 </v>
   <v>       0.04642140       0.31905900      -0.15689700 </v>
   <v>       0.20270400       0.15367700      -0.21990500 </v>
   <v>      -0.34137000       0.21589000      -0.29652700 </v>
   <v>      -0.40833400       0.24765600      -0.07440500 </v>
   <v>      -0.38067900      -0.15008600      -0.11443700 </v>
   <v>      -0.36015200       0.06531580       0.11684700 </v>
   <v>       0.47329400       0.03519130      -0.05961900 </v>
   <v>      -0.21479200      -0.10131800       0.05954840 </v>
   <v>      -0.10393300       0.47979300      -0.14653700 </v>
   <v>      -0.17408000       0.01676710       0.26012600 </v>
   <v>      -0.13410200       0.11966600       0.46588000 </v>
   <v>      -0.22128100      -0.33375000      -0.17407100 </v>
   <v>      -0.13491200      -0.11811900      -0.17226800 </v>
   <v>      -0.12561400       0.11839100       0.05747750 </v>
   <v>      -0.20244500       0.04586070      -0.33217300 </v>
   <v>      -0.03910900       0.09936090      -0.16574100 </v>
   <v>      -0.18677800       0.26759500      -0.12513800 </v>
   <v>      -0.28113000       0.05017040      -0.09581400 </v>
  </varray>
 </structure>
 <varray name="primitive_index" >
  <v type="int" >        1 </v>
  <v type="int" >       60 </v>
  <v type="int" >       12 </v>
  <v type="int" >       71 </v>
  <v type="int" >       43 </v>
  <v type="int" >       56 </v>
  <v type="int" >      100 </v>
  <v type="int" >       96 </v>
  <v type="int" >       58 </v>
  <v type="int" >       44 </v>
  <v type="int" >       32 </v>
  <v type="int" >       10 </v>
  <v type="int" >       93 </v>
  <v type="int" >       79 </v>
  <v type="int" >       52 </v>
  <v type="int" >       73 </v>
  <v type="int" >       85 </v>
  <v type="int" >       30 </v>
  <v type="int" >       63 </v>
  <v type="int" >       48 </v>
  <v type="int" >       17 </v>
  <v type="int" >       54 </v>
  <v type="int" >       81 </v>
  <v type="int" >       66 </v>
  <v type="int" >       76 </v>
  <v type="int" >       36 </v>
  <v type="int" >       83 </v>
  <v type="int" >       14 </v>
  <v type="int" >       65 </v>
  <v type="int" >        4 </v>
  <v type="int" >       89 </v>
  <v type="int" >       23 </v>
  <v type="int" >       78 </v>
  <v type="int" >       27 </v>
  <v type="int" >       84 </v>
  <v type="int" >       68 </v>
  <v type="int" >       45 </v>
  <v type="int" >       34 </v>
  <v type="int" >       67 </v>
  <v type="int" >       77 </v>
  <v type="int" >       61 </v>
  <v type="int" >       13 </v>
  <v type="int" >       53 </v>
  <v type="int" >        3 </v>
  <v type="int" >       97 </v>
  <v type="int" >       98 </v>
  <v type="int" >       18 </v>
  <v type="int" >       51 </v>
  <v type="int" >       95 </v>
  <v type="int" >       38 </v>
  <v type="int" >       90 </v>
  <v type="int" >       82 </v>
  <v type="int" >        9 </v>
  <v type="int" >       87 </v>
  <v type="int" >       64 </v>
  <v type="int" >       69 </v>
  <v type="int" >       72 </v>
  <v type="int" >       22 </v>
  <v type="int" >        7 </v>
  <v type="int" >       70 </v>
  <v type="int" >       39 </v>
  <v type="int" >       59 </v>
  <v type="int" >       19 </v>
  <v type="int" >       94 </v>
  <v type="int" >       55 </v>
  <v type="int" >       57 </v>
  <v type="int" >        6 </v>
  <v type="int" >       11 </v>
  <v type="int" >       40 </v>
  <v type="int" >       20 </v>
  <v type="int" >       21 </v>
  <v type="int" >       92 </v>
  <v type="int" >       88 </v>
  <v type="int" >       35 </v>
  <v type="int" >       50 </v>
  <v type="int" >        8 </v>
  <v type="int" >       31 </v>
  <v type="int" >       33 </v>
  <v type="int" >        2 </v>
  <v type="int" >       42 </v>
  <v type="int" >       28 </v>
  <v type="int" >       46 </v>
  <v type="int" >       16 </v>
  <v type="int" >       37 </v>
  <v type="int" >       75 </v>
  <v type="int" >       26 </v>
  <v type="int" >        5 </v>
  <v type="int" >       80 </v>
  <v type="int" >       49 </v>
  <v type="int" >       62 </v>
  <v type="int" >       86 </v>
  <v type="int" >       25 </v>
  <v type="int" >       47 </v>
  <v type="int" >       74 </v>
  <v type="int" >       24 </v>
  <v type="int" >       99 </v>
  <v type="int" >       15 </v>
  <v type="int" >       41 </v>
  <v type="int" >       29 </v>
  <v type="int" >       91 </v>
 </varray>
 <kpoints>
  <generation param="Gamma">
   <v type="int" name="divisions">       1        1        1 </v>
   <v name="usershift">      0.00000000       0.00000000       0.00000000 </v>
   <v name="genvec1">      1.00000000       0.00000000       0.00000000 </v>
   <v name="genvec2">      0.00000000       1.00000000       0.00000000 </v>
   <v name="genvec3">      0.00000000       0.00000000       1.00000000 </v>
   <v name="shift">      0.00000000       0.00000000       0.00000000 </v>
  </generation>
  <varray name="kpointlist" >
   <v>       0.00000000       0.00000000       0.00000000 </v>
  </varray>
  <varray name="weights" >
   <v>       1.00000000 </v>
  </varray>
 </kpoints>
 <parameters>
  <separator name="general" >
   <i type="string" name="SYSTEM">unknown system</i>
   <i type="logical" name="LCOMPAT"> F  </i>
  </separator>
  <separator name="electronic" >
   <i type="string" name="PREC">normal</i>
   <i name="ENMAX">    245.34500000</i>
   <i name="ENAUG">    322.06900000</i>
   <i name="EDIFF">      0.00001000</i>
   <i type="int" name="IALGO">    48</i>
   <i type="int" name="IWAVPR">    10</i>
   <i type="int" name="NBANDS">   304</i>
   <i name="NELECT">    400.00000000</i>
   <i type="int" name="TURBO">     0</i>
   <i type="int" name="IRESTART">     0</i>
   <i type="int" name="NREBOOT">     0</i>
   <i type="int" name="NMIN">     0</i>
   <i name="EREF">      0.00000000</i>
   <separator name="electronic smearing" >
    <i type="int" name="ISMEAR">     0</i>
    <i name="SIGMA">      0.05000000</i>
    <i name="KSPACING">      0.50000000</i>
    <i type="logical" name="KGAMMA"> T  </i>
   </separator>
   <separator name="electronic projectors" >
    <i type="logical" name="LREAL"> T  </i>
    <v name="ROPT">     -0.00050000</v>
    <i type="int" name="LMAXPAW">  -100</i>
    <i type="int" name="LMAXMIX">     2</i>
    <i type="logical" name="NLSPLINE"> F  </i>
   </separator>
   <separator name="electronic startup" >
    <i type="int" name="ISTART">     0</i>
    <i type="int" name="ICHARG">     2</i>
    <i type="int" name="INIWAV">     1</i>
   </separator>
   <separator name="electronic spin" >
    <i type="int" name="ISPIN">     2</i>
    <i type="logical" name="LNONCOLLINEAR"> F  </i>
    <v name="MAGMOM">      1.00000000      1.00000000      1.00000000      1.00000000      1.00000000      1.00000000      1.00000000      1.00000000      1.00000000      1.00000000      1.00000000      1.00000000      1.00000000      1.00000000      1.00000000      1.00000000      1.00000000      1.00000000      1.00000000      1.00000000
      1.00000000      1.00000000      1.00000000      1.00000000      1.00000000      1.00000000      1.00000000      1.00000000      1.00000000      1.00000000      1.00000000      1.00000000      1.00000000      1.00000000      1.00000000      1.00000000      1.00000000      1.00000000      1.00000000      1.00000000
      1.00000000      1.00000000      1.00000000      1.00000000      1.00000000      1.00000000      1.00000000      1.00000000      1.00000000      1.00000000      1.00000000      1.00000000      1.00000000      1.00000000      1.00000000      1.00000000      1.00000000      1.00000000      1.00000000      1.00000000
      1.00000000      1.00000000      1.00000000      1.00000000      1.00000000      1.00000000      1.00000000      1.00000000      1.00000000      1.00000000      1.00000000      1.00000000      1.00000000      1.00000000      1.00000000      1.00000000      1.00000000      1.00000000      1.00000000      1.00000000
      1.00000000      1.00000000      1.00000000      1.00000000      1.00000000      1.00000000      1.00000000      1.00000000      1.00000000      1.00000000      1.00000000      1.00000000      1.00000000      1.00000000      1.00000000      1.00000000      1.00000000      1.00000000      1.00000000      1.00000000
</v>
    <i name="NUPDOWN">     -1.00000000</i>
    <i type="logical" name="LSORBIT"> F  </i>
    <v name="SAXIS">      0.00000000      0.00000000      1.00000000</v>
    <i type="logical" name="LSPIRAL"> F  </i>
    <v name="QSPIRAL">      0.00000000      0.00000000      0.00000000</v>
    <i type="logical" name="LZEROZ"> F  </i>
   </separator>
   <separator name="electronic exchange-correlation" >
    <i type="logical" name="LASPH"> F  </i>
    <i type="logical" name="LMETAGGA"> F  </i>
   </separator>
   <separator name="electronic convergence" >
    <i type="int" name="NELM">    60</i>
    <i type="int" name="NELMDL">   -12</i>
    <i type="int" name="NELMIN">     4</i>
    <i name="ENINI">    245.34500000</i>
    <separator name="electronic convergence detail" >
     <i type="logical" name="LDIAG"> T  </i>
     <i type="logical" name="LSUBROT"> F  </i>
     <i name="WEIMIN">      0.00000000</i>
     <i name="EBREAK">      0.00000001</i>
     <i name="DEPER">      0.30000000</i>
     <i type="int" name="NRMM">     4</i>
     <i name="TIME">      0.40000000</i>
    </separator>
   </separator>
   <separator name="electronic mixer" >
    <i name="AMIX">      0.40000000</i>
    <i name="BMIX">      1.00000000</i>
    <i name="AMIN">      0.10000000</i>
    <i name="AMIX_MAG">      1.60000000</i>
    <i name="BMIX_MAG">      1.00000000</i>
    <separator name="electronic mixer details" >
     <i type="int" name="IMIX">     4</i>
     <i type="logical" name="MIXFIRST"> F  </i>
     <i type="int" name="MAXMIX">   -45</i>
     <i name="WC">    100.00000000</i>
     <i type="int" name="INIMIX">     1</i>
     <i type="int" name="MIXPRE">     1</i>
     <i type="int" name="MREMOVE">     5</i>
    </separator>
   </separator>
   <separator name="electronic dipolcorrection" >
    <i type="logical" name="LDIPOL"> F  </i>
    <i type="logical" name="LMONO"> F  </i>
    <i type="int" name="IDIPOL">     0</i>
    <i name="EPSILON">      1.00000000</i>
    <v name="DIPOL">   -100.00000000   -100.00000000   -100.00000000</v>
    <i name="EFIELD">      0.00000000</i>
   </separator>
  </separator>
  <separator name="grids" >
   <i type="int" name="NGX">    40</i>
   <i type="int" name="NGY">    40</i>
   <i type="int" name="NGZ">    40</i>
   <i type="int" name="NGXF">    80</i>
   <i type="int" name="NGYF">    80</i>
   <i type="int" name="NGZF">    80</i>
   <i type="logical" name="ADDGRID"> F  </i>
  </separator>
  <separator name="ionic" >
   <i type="int" name="NSW">     0</i>
   <i type="int" name="IBRION">    -1</i>
   <i type="int" name="MDALGO">     0</i>
   <i type="int" name="ISIF">     2</i>
   <i name="PSTRESS">      0.00000000</i>
   <i name="EDIFFG">      0.00010000</i>
   <i type="int" name="NFREE">     0</i>
   <i name="POTIM">      0.50000000</i>
   <i name="SMASS">     -3.00000000</i>
   <i name="SCALEE">      1.00000000</i>
  </separator>
  <separator name="ionic md" >
   <i name="TEBEG">      0.00010000</i>
   <i name="TEEND">      0.00010000</i>
   <i type="int" name="NBLOCK">     1</i>
   <i type="int" name="KBLOCK">     1</i>
   <i type="int" name="NPACO">   256</i>
   <i name="APACO">     16.00000000</i>
  </separator>
  <separator name="symmetry" >
   <i type="int" name="ISYM">     0</i>
   <i name="SYMPREC">      0.00001000</i>
  </separator>
  <separator name="dos" >
   <i type="int" name="LORBIT">     0</i>
   <v name="RWIGS">     -1.00000000</v>
   <i type="int" name="NEDOS">   301</i>
   <i name="EMIN">     10.00000000</i>
   <i name="EMAX">    -10.00000000</i>
   <i name="EFERMI">      0.00000000</i>
  </separator>
  <separator name="writing" >
   <i type="int" name="NWRITE">     2</i>
   <i type="logical" name="LWAVE"> F  </i>
   <i type="logical" name="LDOWNSAMPLE"> F  </i>
   <i type="logical" name="LCHARG"> F  </i>
   <i type="logical" name="LPARD"> F  </i>
   <i type="logical" name="LVTOT"> F  </i>
   <i type="logical" name="LVHAR"> F  </i>
   <i type="logical" name="LELF"> F  </i>
   <i type="logical" name="LOPTICS"> F  </i>
   <v name="STM">      0.00000000      0.00000000      0.00000000      0.00000000      0.00000000      0.00000000      0.00000000</v>
  </separator>
  <separator name="performance" >
   <i type="int" name="NPAR">    16</i>
   <i type="int" name="NSIM">     4</i>
   <i type="int" name="NBLK">    -1</i>
   <i type="logical" name="LPLANE"> T  </i>
   <i type="logical" name="LSCALAPACK"> T  </i>
   <i type="logical" name="LSCAAWARE"> F  </i>
   <i type="logical" name="LSCALU"> F  </i>
   <i type="logical" name="LASYNC"> F  </i>
   <i type="logical" name="LORBITALREAL"> F  </i>
  </separator>
  <separator name="miscellaneous" >
   <i type="int" name="IDIOT">     3</i>
   <i type="int" name="ISPECIAL">     0</i>
   <i type="logical" name="LMUSIC"> F  </i>
   <v name="POMASS">     28.08500000</v>
   <v name="DARWINR">      0.00000000</v>
   <v name="DARWINV">      1.00000000</v>
   <i type="logical" name="LCORR"> T  </i>
  </separator>
  <i type="logical" name="GGA_COMPAT"> T  </i>
  <i type="logical" name="LBERRY"> F  </i>
  <i type="int" name="ICORELEVEL">     0</i>
  <i type="logical" name="LDAU"> F  </i>
  <i type="int" name="I_CONSTRAINED_M">     0</i>
  <separator name="electronic exchange-correlation" >
   <i type="string" name="GGA">--</i>
   <i type="int" name="VOSKOWN">     0</i>
   <i type="logical" name="LHFCALC"> F  </i>
   <i type="string" name="PRECFOCK"></i>
   <i type="logical" name="LSYMGRAD"> F  </i>
   <i type="logical" name="LHFONE"> F  </i>
   <i type="logical" name="LRHFCALC"> F  </i>
   <i type="logical" name="LTHOMAS"> F  </i>
   <i type="logical" name="LMODELHF"> F  </i>
   <i name="ENCUT4O">     -1.00000000</i>
   <i type="int" name="EXXOEP">     0</i>
   <i type="int" name="FOURORBIT">     0</i>
   <i name="AEXX">      0.00000000</i>
   <i name="HFALPHA">      0.00000000</i>
   <i name="MCALPHA">      0.00000000</i>
   <i name="ALDAX">      1.00000000</i>
   <i name="AGGAX">      1.00000000</i>
   <i name="ALDAC">      1.00000000</i>
   <i name="AGGAC">      1.00000000</i>
   <i type="int" name="NKREDX">     1</i>
   <i type="int" name="NKREDY">     1</i>
   <i type="int" name="NKREDZ">     1</i>
   <i type="logical" name="SHIFTRED"> F  </i>
   <i type="logical" name="ODDONLY"> F  </i>
   <i type="logical" name="EVENONLY"> F  </i>
   <i type="int" name="LMAXFOCK">     0</i>
   <i type="int" name="NMAXFOCKAE">     0</i>
   <i type="logical" name="LFOCKAEDFT"> F  </i>
   <i name="HFSCREEN">      0.00000000</i>
   <i name="HFSCREENC">      0.00000000</i>
   <i type="int" name="NBANDSGWLOW">     0</i>
  </separator>
  <separator name="vdW DFT" >
   <i type="logical" name="LUSE_VDW"> F  </i>
   <i name="Zab_VDW">     -0.84910000</i>
   <i name="PARAM1">      0.12340000</i>
   <i name="PARAM2">      1.00000000</i>
   <i name="PARAM3">      0.00000000</i>
  </separator>
  <separator name="model GW" >
   <i type="int" name="MODEL_GW">     0</i>
   <i name="MODEL_EPS0">      6.38879919</i>
   <i name="MODEL_ALPHA">      1.00000000</i>
  </separator>
  <separator name="linear response parameters" >
   <i type="logical" name="LEPSILON"> F  </i>
   <i type="logical" name="LRPA"> F  </i>
   <i type="logical" name="LNABLA"> F  </i>
   <i type="logical" name="LVEL"> F  </i>
   <i type="int" name="KINTER">     0</i>
   <i name="CSHIFT">      0.10000000</i>
   <i name="OMEGAMAX">     -1.00000000</i>
   <i name="DEG_THRESHOLD">      0.00200000</i>
   <i name="RTIME">     -0.10000000</i>
   <i name="WPLASMAI">      0.00000000</i>
   <v name="DFIELD">      0.00000000      0.00000000      0.00000000</v>
   <v name="WPLASMA">      0.00000000      0.00000000      0.00000000      0.00000000      0.00000000      0.00000000      0.00000000      0.00000000      0.00000000</v>
  </separator>
  <separator name="orbital magnetization" >
   <i type="logical" name="NUCIND"> F  </i>
   <v name="MAGPOS">      0.00000000      0.00000000      0.00000000</v>
   <i type="logical" name="LNICSALL"> T  </i>
   <i type="logical" name="ORBITALMAG"> F  </i>
   <i type="logical" name="LMAGBLOCH"> F  </i>
   <i type="logical" name="LCHIMAG"> F  </i>
   <i type="logical" name="LGAUGE"> T  </i>
   <i type="int" name="MAGATOM">     0</i>
   <v name="MAGDIPOL">      0.00000000      0.00000000      0.00000000</v>
   <v name="AVECCONST">      0.00000000      0.00000000      0.00000000</v>
  </separator>
  <separator name="response functions" >
   <i type="logical" name="LADDER"> F  </i>
   <i type="logical" name="LRPAFORCE"> F  </i>
   <i type="logical" name="LFXC"> F  </i>
   <i type="logical" name="LHARTREE"> T  </i>
   <i type="int" name="IBSE">     0</i>
   <v type="int" name="KPOINT">    -1     0     0     0</v>
   <i type="logical" name="LTCTE"> F  </i>
   <i type="logical" name="LTETE"> F  </i>
   <i type="logical" name="LTRIPLET"> F  </i>
   <i type="logical" name="LFXCEPS"> F  </i>
   <i type="logical" name="LFXHEG"> F  </i>
   <i type="int" name="NATURALO">     2</i>
   <i type="logical" name="L2ORDER"> F  </i>
   <i type="logical" name="LMP2LT"> F  </i>
   <i type="logical" name="LUSEW"> F  </i>
   <i name="ENCUTGW">     -2.00000000</i>
   <i name="ENCUTGWSOFT">     -2.00000000</i>
   <i name="ENCUTLF">     -1.00000000</i>
   <i type="int" name="LMAXMP2">    -1</i>
   <i name="SCISSOR">      0.00000000</i>
   <i type="int" name="NOMEGA">     0</i>
   <i type="int" name="NOMEGAR">     0</i>
   <i type="int" name="NBANDSGW">    -1</i>
   <i type="int" name="NBANDSO">    -1</i>
   <i type="int" name="NBANDSV">    -1</i>
   <i type="int" name="NELM">    60</i>
   <i type="int" name="NELMHF">     1</i>
   <i type="int" name="DIM">     3</i>
   <i type="int" name="ANTIRES">     0</i>
   <i name="OMEGAMAX">    -30.00000000</i>
   <i name="OMEGAMIN">    -30.00000000</i>
   <i name="OMEGATL">   -200.00000000</i>
   <i type="int" name="OMEGAGRID">   140</i>
   <i name="CSHIFT">     -0.10000000</i>
   <i type="logical" name="SELFENERGY"> F  </i>
   <i type="logical" name="LSPECTRAL"> F  </i>
   <i type="logical" name="LSPECTRALGW"> F  </i>
   <i type="logical" name="LSINGLES"> F  </i>
   <i type="logical" name="LFERMIGW"> F  </i>
   <i type="logical" name="ODDONLYGW"> F  </i>
   <i type="logical" name="EVENONLYGW"> F  </i>
   <i type="int" name="NKREDLFX">     1</i>
   <i type="int" name="NKREDLFY">     1</i>
   <i type="int" name="NKREDLFZ">     1</i>
   <i type="int" name="MAXMEM">  2800</i>
   <i type="int" name="TELESCOPE">     0</i>
   <i type="int" name="TAUPAR">     1</i>
   <i type="int" name="OMEGAPAR">    -1</i>
   <i name="LAMBDA">      1.00000000</i>
  </separator>
  <separator name="External order field" >
   <i name="OFIELD_KAPPA">      0.00000000</i>
   <v name="OFIELD_K">      0.00000000      0.00000000      0.00000000</v>
   <i name="OFIELD_Q6_NEAR">      0.00000000</i>
   <i name="OFIELD_Q6_FAR">      0.00000000</i>
   <i name="OFIELD_A">      0.00000000</i>
  </separator>
 </parameters>
 <atominfo>
  <atoms>     100 </atoms>
  <types>       1 </types>
  <array name="atoms" >
   <dimension dim="1">ion</dimension>
   <field type="string">element</field>
   <field type="int">atomtype</field>
   <set>
    <rc><c>Si</c><c>   1</c></rc>
    <rc><c>Si</c><c>   1</c></rc>
    <rc><c>Si</c><c>   1</c></rc>
    <rc><c>Si</c><c>   1</c></rc>
    <rc><c>Si</c><c>   1</c></rc>
    <rc><c>Si</c><c>   1</c></rc>
    <rc><c>Si</c><c>   1</c></rc>
    <rc><c>Si</c><c>   1</c></rc>
    <rc><c>Si</c><c>   1</c></rc>
    <rc><c>Si</c><c>   1</c></rc>
    <rc><c>Si</c><c>   1</c></rc>
    <rc><c>Si</c><c>   1</c></rc>
    <rc><c>Si</c><c>   1</c></rc>
    <rc><c>Si</c><c>   1</c></rc>
    <rc><c>Si</c><c>   1</c></rc>
    <rc><c>Si</c><c>   1</c></rc>
    <rc><c>Si</c><c>   1</c></rc>
    <rc><c>Si</c><c>   1</c></rc>
    <rc><c>Si</c><c>   1</c></rc>
    <rc><c>Si</c><c>   1</c></rc>
    <rc><c>Si</c><c>   1</c></rc>
    <rc><c>Si</c><c>   1</c></rc>
    <rc><c>Si</c><c>   1</c></rc>
    <rc><c>Si</c><c>   1</c></rc>
    <rc><c>Si</c><c>   1</c></rc>
    <rc><c>Si</c><c>   1</c></rc>
    <rc><c>Si</c><c>   1</c></rc>
    <rc><c>Si</c><c>   1</c></rc>
    <rc><c>Si</c><c>   1</c></rc>
    <rc><c>Si</c><c>   1</c></rc>
    <rc><c>Si</c><c>   1</c></rc>
    <rc><c>Si</c><c>   1</c></rc>
    <rc><c>Si</c><c>   1</c></rc>
    <rc><c>Si</c><c>   1</c></rc>
    <rc><c>Si</c><c>   1</c></rc>
    <rc><c>Si</c><c>   1</c></rc>
    <rc><c>Si</c><c>   1</c></rc>
    <rc><c>Si</c><c>   1</c></rc>
    <rc><c>Si</c><c>   1</c></rc>
    <rc><c>Si</c><c>   1</c></rc>
    <rc><c>Si</c><c>   1</c></rc>
    <rc><c>Si</c><c>   1</c></rc>
    <rc><c>Si</c><c>   1</c></rc>
    <rc><c>Si</c><c>   1</c></rc>
    <rc><c>Si</c><c>   1</c></rc>
    <rc><c>Si</c><c>   1</c></rc>
    <rc><c>Si</c><c>   1</c></rc>
    <rc><c>Si</c><c>   1</c></rc>
    <rc><c>Si</c><c>   1</c></rc>
    <rc><c>Si</c><c>   1</c></rc>
    <rc><c>Si</c><c>   1</c></rc>
    <rc><c>Si</c><c>   1</c></rc>
    <rc><c>Si</c><c>   1</c></rc>
    <rc><c>Si</c><c>   1</c></rc>
    <rc><c>Si</c><c>   1</c></rc>
    <rc><c>Si</c><c>   1</c></rc>
    <rc><c>Si</c><c>   1</c></rc>
    <rc><c>Si</c><c>   1</c></rc>
    <rc><c>Si</c><c>   1</c></rc>
    <rc><c>Si</c><c>   1</c></rc>
    <rc><c>Si</c><c>   1</c></rc>
    <rc><c>Si</c><c>   1</c></rc>
    <rc><c>Si</c><c>   1</c></rc>
    <rc><c>Si</c><c>   1</c></rc>
    <rc><c>Si</c><c>   1</c></rc>
    <rc><c>Si</c><c>   1</c></rc>
    <rc><c>Si</c><c>   1</c></rc>
    <rc><c>Si</c><c>   1</c></rc>
    <rc><c>Si</c><c>   1</c></rc>
    <rc><c>Si</c><c>   1</c></rc>
    <rc><c>Si</c><c>   1</c></rc>
    <rc><c>Si</c><c>   1</c></rc>
    <rc><c>Si</c><c>   1</c></rc>
    <rc><c>Si</c><c>   1</c></rc>
    <rc><c>Si</c><c>   1</c></rc>
    <rc><c>Si</c><c>   1</c></rc>
    <rc><c>Si</c><c>   1</c></rc>
    <rc><c>Si</c><c>   1</c></rc>
    <rc><c>Si</c><c>   1</c></rc>
    <rc><c>Si</c><c>   1</c></rc>
    <rc><c>Si</c><c>   1</c></rc>
    <rc><c>Si</c><c>   1</c></rc>
    <rc><c>Si</c><c>   1</c></rc>
    <rc><c>Si</c><c>   1</c></rc>
    <rc><c>Si</c><c>   1</c></rc>
    <rc><c>Si</c><c>   1</c></rc>
    <rc><c>Si</c><c>   1</c></rc>
    <rc><c>Si</c><c>   1</c></rc>
    <rc><c>Si</c><c>   1</c></rc>
    <rc><c>Si</c><c>   1</c></rc>
    <rc><c>Si</c><c>   1</c></rc>
    <rc><c>Si</c><c>   1</c></rc>
    <rc><c>Si</c><c>   1</c></rc>
    <rc><c>Si</c><c>   1</c></rc>
    <rc><c>Si</c><c>   1</c></rc>
    <rc><c>Si</c><c>   1</c></rc>
    <rc><c>Si</c><c>   1</c></rc>
    <rc><c>Si</c><c>   1</c></rc>
    <rc><c>Si</c><c>   1</c></rc>
    <rc><c>Si</c><c>   1</c></rc>
   </set>
  </array>
  <array name="atomtypes" >
   <dimension dim="1">type</dimension>
   <field type="int">atomspertype</field>
   <field type="string">element</field>
   <field>mass</field>
   <field>valence</field>
   <field type="string">pseudopotential</field>
   <set>
    <rc><c> 100</c><c>Si</c><c>     28.08500000</c><c>      4.00000000</c><c>  PAW_PBE Si 05Jan2001                  </c></rc>
   </set>
  </array>
 </atominfo>
 <structure name="initialpos" >
  <crystal>
   <varray name="basis" >
    <v>      10.21149500       0.00000000       0.00000000 </v>
    <v>       0.00000000      10.21149500       0.00000000 </v>
    <v>       0.00000000       0.00000000      10.21149500 </v>
   </varray>
   <i name="volume">   1064.79986425 </i>
   <varray name="rec_basis" >
    <v>       0.09792885       0.00000000       0.00000000 </v>
    <v>       0.00000000       0.09792885       0.00000000 </v>
    <v>       0.00000000       0.00000000       0.09792885 </v>
   </varray>
  </crystal>
  <varray name="positions" >
   <v>       0.31029300       0.58853300       0.36053600 </v>
   <v>       0.61485700       0.10235400       0.50589600 </v>
   <v>       0.14390000       0.54613300       0.78271100 </v>
   <v>       0.71268800       0.52310400       0.47767500 </v>
   <v>       0.61932100       0.84991400       0.88556300 </v>
   <v>       0.00770000       0.71024400       0.79769500 </v>
   <v>       0.52844500       0.63620200       0.87863500 </v>
   <v>       0.66956100       0.46330400       0.91623800 </v>
   <v>       0.69392000       0.69548500       0.04403030 </v>
   <v>       0.03478300       0.55100400       0.42943600 </v>
   <v>       0.93355800       0.20547500       0.25849700 </v>
   <v>       0.38451500       0.44584900       0.20465500 </v>
   <v>       0.89088500       0.74160900       0.40691000 </v>
   <v>       0.52145100       0.85326800       0.11508000 </v>
   <v>       0.79755500       0.04586070       0.66782700 </v>
   <v>       0.04642140       0.31905900       0.84310300 </v>
   <v>       0.20414400       0.89766900       0.57076500 </v>
   <v>       0.02403290       0.96180500       0.40557400 </v>
   <v>       0.73631500       0.90916300       0.44508000 </v>
   <v>       0.72060000       0.83053600       0.66671300 </v>
   <v>       0.74602400       0.42924300       0.69715900 </v>
   <v>       0.93640600       0.87317300       0.60035200 </v>
   <v>       0.43541600       0.17570600       0.36035100 </v>
   <v>       0.86508800       0.88188100       0.82773200 </v>
   <v>       0.82592000       0.01676710       0.26012600 </v>
   <v>       0.59166600       0.24765600       0.92559500 </v>
   <v>       0.00231000       0.85180900       0.20902900 </v>
   <v>       0.89458000       0.25839000       0.66060500 </v>
   <v>       0.81322200       0.26759500       0.87486200 </v>
   <v>       0.58046700       0.75019400       0.49997600 </v>
   <v>       0.02853440       0.96499600       0.01221000 </v>
   <v>       0.12126100       0.42396200       0.25626600 </v>
   <v>       0.75435300       0.30865300       0.09247370 </v>
   <v>       0.15817300       0.77212700       0.98825100 </v>
   <v>       0.11456200       0.17756400       0.00059848 </v>
   <v>       0.45054300       0.93627200       0.52573200 </v>
   <v>       0.20270400       0.15367700       0.78009500 </v>
   <v>       0.98666200       0.35151900       0.08566010 </v>
   <v>       0.93309400       0.73710800       0.01026820 </v>
   <v>       0.84590300       0.52226600       0.07233370 </v>
   <v>       0.96089100       0.09936090       0.83425900 </v>
   <v>       0.56371600       0.00228916       0.71387300 </v>
   <v>       0.41128700       0.79058900       0.31389200 </v>
   <v>       0.55238500       0.61679400       0.31963000 </v>
   <v>       0.46478000       0.79137100       0.71987000 </v>
   <v>       0.05971690       0.08545560       0.61381900 </v>
   <v>       0.86589800       0.11966600       0.46588000 </v>
   <v>       0.46159900       0.29176800       0.54208900 </v>
   <v>       0.47329400       0.03519130       0.94038100 </v>
   <v>       0.10219900       0.92356100       0.78913300 </v>
   <v>       0.37900900       0.81969300       0.94666500 </v>
   <v>       0.08548150       0.70302400       0.58592300 </v>
   <v>       0.12802300       0.17265500       0.39219000 </v>
   <v>       0.25994800       0.23306400       0.20686100 </v>
   <v>       0.32687200       0.96755900       0.74986700 </v>
   <v>       0.45332300       0.50637200       0.52443400 </v>
   <v>       0.68354500       0.19710400       0.29113900 </v>
   <v>       0.14532900       0.76935500       0.35939000 </v>
   <v>       0.35148600       0.21131300       0.97978800 </v>
   <v>       0.34066700       0.72241600       0.53189700 </v>
   <v>       0.23846400       0.76029600       0.76769400 </v>
   <v>       0.78520800       0.89868200       0.05954840 </v>
   <v>       0.36424000       0.57062900       0.72216800 </v>
   <v>       0.37605200       0.05693750       0.15020400 </v>
   <v>       0.29592200       0.59773300       0.94102300 </v>
   <v>       0.62217300       0.48455400       0.14058500 </v>
   <v>       0.51904700       0.25969800       0.14446500 </v>
   <v>       0.99361900       0.47146400       0.64095300 </v>
   <v>       0.84967100       0.64398400       0.59856100 </v>
   <v>       0.11097500       0.05901050       0.20802800 </v>
   <v>       0.21843900       0.53220000       0.56092500 </v>
   <v>       0.72889600       0.30296100       0.49899800 </v>
   <v>       0.00622000       0.63164100       0.21546200 </v>
   <v>       0.77871900       0.66625000       0.82592900 </v>
   <v>       0.65863000       0.21589000       0.70347300 </v>
   <v>       0.27490100       0.98294400       0.36542000 </v>
   <v>       0.06351760       0.54187400       0.99260100 </v>
   <v>       0.97664000       0.33110200       0.45587500 </v>
   <v>       0.56595600       0.38538600       0.35559400 </v>
   <v>       0.63984800       0.06531580       0.11684700 </v>
   <v>       0.22914300       0.38946700       0.03049280 </v>
   <v>       0.29132800       0.36603700       0.81012700 </v>
   <v>       0.16163300       0.30232200       0.61356900 </v>
   <v>       0.45697200       0.42853700       0.98237700 </v>
   <v>       0.25909300       0.86266200       0.16622900 </v>
   <v>       0.89606700       0.47979300       0.85346300 </v>
   <v>       0.30619800       0.12009200       0.56363500 </v>
   <v>       0.24806300       0.99727200       0.95939300 </v>
   <v>       0.60752500       0.60567600       0.66821500 </v>
   <v>       0.52006900       0.39042900       0.75251100 </v>
   <v>       0.71887000       0.05017040       0.90418600 </v>
   <v>       0.42546400       0.18676700       0.75282700 </v>
   <v>       0.44325600       0.65512200       0.10215000 </v>
   <v>       0.81352400       0.38044200       0.29689300 </v>
   <v>       0.78365400       0.60702700       0.27301400 </v>
   <v>       0.28235800       0.35167100       0.41519600 </v>
   <v>       0.54544500       0.98638300       0.31111700 </v>
   <v>       0.70354200       0.81199200       0.25070100 </v>
   <v>       0.87438600       0.11839100       0.05747750 </v>
   <v>       0.21499500       0.61546400       0.14880000 </v>
  </varray>
 </structure>
 <calculation>
  <scstep>
   <time name="diag">    0.35    0.35</time>
   <time name="diis">    0.43    0.43</time>
   <time name="orth">    0.10    0.10</time>
   <time name="total">    0.96    1.06</time>
   <energy>
    <i name="alphaZ">    316.14514549 </i>
    <i name="ewald"> -14988.20341961 </i>
    <i name="hartreedc">    -83.97325359 </i>
    <i name="XCdc">   -778.31444596 </i>
    <i name="pawpsdc">   8803.41707833 </i>
    <i name="pawaedc">  -7043.47671478 </i>
    <i name="eentropy">     -0.00951234 </i>
    <i name="bandstr">   4823.39007704 </i>
    <i name="atom">  10306.12861560 </i>
    <i name="e_fr_energy">   1355.10357018 </i>
    <i name="e_wo_entrp">   1355.11308252 </i>
    <i name="e_0_energy">   1355.10832635 </i>
   </energy>
  </scstep>
  <scstep>
   <time name="diag">    0.34    0.34</time>
   <time name="diis">    0.44    0.44</time>
   <time name="orth">    0.10    0.10</time>
   <time name="total">    0.87    0.88</time>
   <energy>
    <i name="e_fr_energy">     -7.62176917 </i>
    <i name="e_wo_entrp">     -7.58749250 </i>
    <i name="e_0_energy">     -7.60463084 </i>
   </energy>
  </scstep>
  <scstep>
   <time name="diag">    0.34    0.34</time>
   <time name="diis">    0.44    0.44</time>
   <time name="orth">    0.10    0.10</time>
   <time name="total">    0.87    0.88</time>
   <energy>
    <i name="e_fr_energy">   -292.76293313 </i>
    <i name="e_wo_entrp">   -292.73537916 </i>
    <i name="e_0_energy">   -292.74915614 </i>
   </energy>
  </scstep>
  <scstep>
   <time name="diag">    0.34    0.34</time>
   <time name="diis">    0.44    0.44</time>
   <time name="orth">    0.10    0.10</time>
   <time name="total">    0.87    0.88</time>
   <energy>
    <i name="e_fr_energy">   -371.39800504 </i>
    <i name="e_wo_entrp">   -371.35575048 </i>
    <i name="e_0_energy">   -371.37687776 </i>
   </energy>
  </scstep>
  <scstep>
   <time name="diag">    0.34    0.34</time>
   <time name="diis">    0.44    0.44</time>
   <time name="orth">    0.10    0.10</time>
   <time name="total">    0.87    0.88</time>
   <energy>
    <i name="e_fr_energy">   -396.26455251 </i>
    <i name="e_wo_entrp">   -396.20683032 </i>
    <i name="e_0_energy">   -396.23569142 </i>
   </energy>
  </scstep>
  <scstep>
   <time name="diag">    0.34    0.34</time>
   <time name="diis">    0.44    0.44</time>
   <time name="orth">    0.10    0.10</time>
   <time name="total">    0.87    0.88</time>
   <energy>
    <i name="e_fr_energy">   -405.44055483 </i>
    <i name="e_wo_entrp">   -405.40094371 </i>
    <i name="e_0_energy">   -405.42074927 </i>
   </energy>
  </scstep>
  <scstep>
   <time name="diag">    0.34    0.34</time>
   <time name="diis">    0.44    0.44</time>
   <time name="orth">    0.10    0.10</time>
   <time name="total">    0.87    0.88</time>
   <energy>
    <i name="e_fr_energy">   -408.74475269 </i>
    <i name="e_wo_entrp">   -408.69703664 </i>
    <i name="e_0_energy">   -408.72089466 </i>
   </energy>
  </scstep>
  <scstep>
   <time name="diag">    0.34    0.34</time>
   <time name="diis">    0.44    0.44</time>
   <time name="orth">    0.10    0.10</time>
   <time name="total">    0.87    0.88</time>
   <energy>
    <i name="e_fr_energy">   -410.06208917 </i>
    <i name="e_wo_entrp">   -410.00952195 </i>
    <i name="e_0_energy">   -410.03580556 </i>
   </energy>
  </scstep>
  <scstep>
   <time name="diag">    0.34    0.34</time>
   <time name="diis">    0.97    0.98</time>
   <time name="orth">    0.10    0.10</time>
   <time name="total">    1.41    1.42</time>
   <energy>
    <i name="e_fr_energy">   -410.80813443 </i>
    <i name="e_wo_entrp">   -410.74650708 </i>
    <i name="e_0_energy">   -410.77732075 </i>
   </energy>
  </scstep>
  <scstep>
   <time name="diag">    0.34    0.34</time>
   <time name="diis">    0.90    0.91</time>
   <time name="orth">    0.10    0.10</time>
   <time name="total">    1.34    1.35</time>
   <energy>
    <i name="e_fr_energy">   -410.90049154 </i>
    <i name="e_wo_entrp">   -410.83671818 </i>
    <i name="e_0_energy">   -410.86860486 </i>
   </energy>
  </scstep>
  <scstep>
   <time name="diag">    0.34    0.34</time>
   <time name="diis">    0.90    0.91</time>
   <time name="orth">    0.10    0.10</time>
   <time name="total">    1.33    1.34</time>
   <energy>
    <i name="e_fr_energy">   -410.90221373 </i>
    <i name="e_wo_entrp">   -410.83841431 </i>
    <i name="e_0_energy">   -410.87031402 </i>
   </energy>
  </scstep>
  <scstep>
   <time name="diag">    0.34    0.34</time>
   <time name="diis">    0.76    0.77</time>
   <time name="orth">    0.10    0.10</time>
   <time name="total">    1.24    1.25</time>
   <energy>
    <i name="e_fr_energy">   -410.90222515 </i>
    <i name="e_wo_entrp">   -410.83842556 </i>
    <i name="e_0_energy">   -410.87032536 </i>
   </energy>
  </scstep>
  <scstep>
   <time name="diag">    0.34    0.34</time>
   <time name="diis">    0.90    0.91</time>
   <time name="orth">    0.10    0.10</time>
   <time name="total">    1.47    1.48</time>
   <energy>
    <i name="e_fr_energy">   -419.00500815 </i>
    <i name="e_wo_entrp">   -418.95278464 </i>
    <i name="e_0_energy">   -418.97889639 </i>
   </energy>
  </scstep>
  <scstep>
   <time name="diag">    0.34    0.34</time>
   <time name="diis">    0.89    0.90</time>
   <time name="orth">    0.10    0.10</time>
   <time name="total">    1.46    1.47</time>
   <energy>
    <i name="e_fr_energy">   -427.16015558 </i>
    <i name="e_wo_entrp">   -427.10133671 </i>
    <i name="e_0_energy">   -427.13074614 </i>
   </energy>
  </scstep>
  <scstep>
   <time name="diag">    0.34    0.34</time>
   <time name="diis">    0.89    0.90</time>
   <time name="orth">    0.10    0.10</time>
   <time name="total">    1.46    1.48</time>
   <energy>
    <i name="e_fr_energy">   -427.62485679 </i>
    <i name="e_wo_entrp">   -427.57475128 </i>
    <i name="e_0_energy">   -427.59980404 </i>
   </energy>
  </scstep>
  <scstep>
   <time name="diag">    0.34    0.34</time>
   <time name="diis">    0.92    0.93</time>
   <time name="orth">    0.10    0.10</time>
   <time name="total">    1.49    1.50</time>
   <energy>
    <i name="e_fr_energy">   -427.76452787 </i>
    <i name="e_wo_entrp">   -427.71566968 </i>
    <i name="e_0_energy">   -427.74009878 </i>
   </energy>
  </scstep>
  <scstep>
   <time name="diag">    0.34    0.34</time>
   <time name="diis">    0.97    0.98</time>
   <time name="orth">    0.10    0.10</time>
   <time name="total">    1.54    1.56</time>
   <energy>
    <i name="e_fr_energy">   -427.86736586 </i>
    <i name="e_wo_entrp">   -427.82077864 </i>
    <i name="e_0_energy">   -427.84407225 </i>
   </energy>
  </scstep>
  <scstep>
   <time name="diag">    0.34    0.34</time>
   <time name="diis">    0.65    1.18</time>
   <time name="orth">    0.10    0.10</time>
   <time name="total">    1.23    1.75</time>
   <energy>
    <i name="e_fr_energy">   -427.90791164 </i>
    <i name="e_wo_entrp">   -427.85878374 </i>
    <i name="e_0_energy">   -427.88334769 </i>
   </energy>
  </scstep>
  <scstep>
   <time name="diag">    0.34    0.34</time>
   <time name="diis">    0.92    0.93</time>
   <time name="orth">    0.10    0.10</time>
   <time name="total">    1.49    1.50</time>
   <energy>
    <i name="e_fr_energy">   -427.91354505 </i>
    <i name="e_wo_entrp">   -427.86015436 </i>
    <i name="e_0_energy">   -427.88684970 </i>
   </energy>
  </scstep>
  <scstep>
   <time name="diag">    0.34    0.34</time>
   <time name="diis">    0.92    0.93</time>
   <time name="orth">    0.10    0.10</time>
   <time name="total">    1.49    1.51</time>
   <energy>
    <i name="e_fr_energy">   -427.91562281 </i>
    <i name="e_wo_entrp">   -427.85891454 </i>
    <i name="e_0_energy">   -427.88726868 </i>
   </energy>
  </scstep>
  <scstep>
   <time name="diag">    0.34    0.34</time>
   <time name="diis">    0.93    0.94</time>
   <time name="orth">    0.10    0.10</time>
   <time name="total">    1.50    1.51</time>
   <energy>
    <i name="e_fr_energy">   -427.91629263 </i>
    <i name="e_wo_entrp">   -427.85857743 </i>
    <i name="e_0_energy">   -427.88743503 </i>
   </energy>
  </scstep>
  <scstep>
   <time name="diag">    0.34    0.34</time>
   <time name="diis">    0.92    0.93</time>
   <time name="orth">    0.10    0.10</time>
   <time name="total">    1.49    1.50</time>
   <energy>
    <i name="e_fr_energy">   -427.91662841 </i>
    <i name="e_wo_entrp">   -427.85828719 </i>
    <i name="e_0_energy">   -427.88745780 </i>
   </energy>
  </scstep>
  <scstep>
   <time name="diag">    0.34    0.34</time>
   <time name="diis">    0.92    0.93</time>
   <time name="orth">    0.10    0.10</time>
   <time name="total">    1.49    1.51</time>
   <energy>
    <i name="e_fr_energy">   -427.91678323 </i>
    <i name="e_wo_entrp">   -427.85825687 </i>
    <i name="e_0_energy">   -427.88752005 </i>
   </energy>
  </scstep>
  <scstep>
   <time name="diag">    0.34    0.34</time>
   <time name="diis">    0.93    0.94</time>
   <time name="orth">    0.10    0.10</time>
   <time name="total">    1.50    1.51</time>
   <energy>
    <i name="e_fr_energy">   -427.91682879 </i>
    <i name="e_wo_entrp">   -427.85822007 </i>
    <i name="e_0_energy">   -427.88752443 </i>
   </energy>
  </scstep>
  <scstep>
   <time name="diag">    0.34    0.34</time>
   <time name="diis">    0.82    0.83</time>
   <time name="orth">    0.10    0.10</time>
   <time name="total">    1.34    1.35</time>
   <energy>
    <i name="alphaZ">    316.14514549 </i>
    <i name="ewald"> -14988.20341961 </i>
    <i name="hartreedc">   -108.28295222 </i>
    <i name="XCdc">   -771.55011356 </i>
    <i name="pawpsdc">  80141.85636914 </i>
    <i name="pawaedc"> -78394.78791774 </i>
    <i name="eentropy">     -0.05861015 </i>
    <i name="bandstr">   3070.83604571 </i>
    <i name="atom">  10306.12861560 </i>
    <i name="e_fr_energy">   -427.91683734 </i>
    <i name="e_wo_entrp">   -427.85822719 </i>
    <i name="e_0_energy">   -427.88753227 </i>
   </energy>
  </scstep>
  <structure>
   <crystal>
    <varray name="basis" >
     <v>      10.21149500       0.00000000       0.00000000 </v>
     <v>       0.00000000      10.21149500       0.00000000 </v>
     <v>       0.00000000       0.00000000      10.21149500 </v>
    </varray>
    <i name="volume">   1064.79986425 </i>
    <varray name="rec_basis" >
     <v>       0.09792885       0.00000000       0.00000000 </v>
     <v>       0.00000000       0.09792885       0.00000000 </v>
     <v>       0.00000000       0.00000000       0.09792885 </v>
    </varray>
   </crystal>
   <varray name="positions" >
    <v>       0.31029300       0.58853300       0.36053600 </v>
    <v>       0.61485700       0.10235400       0.50589600 </v>
    <v>       0.14390000       0.54613300       0.78271100 </v>
    <v>       0.71268800       0.52310400       0.47767500 </v>
    <v>       0.61932100       0.84991400       0.88556300 </v>
    <v>       0.00770000       0.71024400       0.79769500 </v>
    <v>       0.52844500       0.63620200       0.87863500 </v>
    <v>       0.66956100       0.46330400       0.91623800 </v>
    <v>       0.69392000       0.69548500       0.04403030 </v>
    <v>       0.03478300       0.55100400       0.42943600 </v>
    <v>       0.93355800       0.20547500       0.25849700 </v>
    <v>       0.38451500       0.44584900       0.20465500 </v>
    <v>       0.89088500       0.74160900       0.40691000 </v>
    <v>       0.52145100       0.85326800       0.11508000 </v>
    <v>       0.79755500       0.04586070       0.66782700 </v>
    <v>       0.04642140       0.31905900       0.84310300 </v>
    <v>       0.20414400       0.89766900       0.57076500 </v>
    <v>       0.02403290       0.96180500       0.40557400 </v>
    <v>       0.73631500       0.90916300       0.44508000 </v>
    <v>       0.72060000       0.83053600       0.66671300 </v>
    <v>       0.74602400       0.42924300       0.69715900 </v>
    <v>       0.93640600       0.87317300       0.60035200 </v>
    <v>       0.43541600       0.17570600       0.36035100 </v>
    <v>       0.86508800       0.88188100       0.82773200 </v>
    <v>       0.82592000       0.01676710       0.26012600 </v>
    <v>       0.59166600       0.24765600       0.92559500 </v>
    <v>       0.00231000       0.85180900       0.20902900 </v>
    <v>       0.89458000       0.25839000       0.66060500 </v>
    <v>       0.81322200       0.26759500       0.87486200 </v>
    <v>       0.58046700       0.75019400       0.49997600 </v>
    <v>       0.02853440       0.96499600       0.01221000 </v>
    <v>       0.12126100       0.42396200       0.25626600 </v>
    <v>       0.75435300       0.30865300       0.09247370 </v>
    <v>       0.15817300       0.77212700       0.98825100 </v>
    <v>       0.11456200       0.17756400       0.00059848 </v>
    <v>       0.45054300       0.93627200       0.52573200 </v>
    <v>       0.20270400       0.15367700       0.78009500 </v>
    <v>       0.98666200       0.35151900       0.08566010 </v>
    <v>       0.93309400       0.73710800       0.01026820 </v>
    <v>       0.84590300       0.52226600       0.07233370 </v>
    <v>       0.96089100       0.09936090       0.83425900 </v>
    <v>       0.56371600       0.00228916       0.71387300 </v>
    <v>       0.41128700       0.79058900       0.31389200 </v>
    <v>       0.55238500       0.61679400       0.31963000 </v>
    <v>       0.46478000       0.79137100       0.71987000 </v>
    <v>       0.05971690       0.08545560       0.61381900 </v>
    <v>       0.86589800       0.11966600       0.46588000 </v>
    <v>       0.46159900       0.29176800       0.54208900 </v>
    <v>       0.47329400       0.03519130       0.94038100 </v>
    <v>       0.10219900       0.92356100       0.78913300 </v>
    <v>       0.37900900       0.81969300       0.94666500 </v>
    <v>       0.08548150       0.70302400       0.58592300 </v>
    <v>       0.12802300       0.17265500       0.39219000 </v>
    <v>       0.25994800       0.23306400       0.20686100 </v>
    <v>       0.32687200       0.96755900       0.74986700 </v>
    <v>       0.45332300       0.50637200       0.52443400 </v>
    <v>       0.68354500       0.19710400       0.29113900 </v>
    <v>       0.14532900       0.76935500       0.35939000 </v>
    <v>       0.35148600       0.21131300       0.97978800 </v>
    <v>       0.34066700       0.72241600       0.53189700 </v>
    <v>       0.23846400       0.76029600       0.76769400 </v>
    <v>       0.78520800       0.89868200       0.05954840 </v>
    <v>       0.36424000       0.57062900       0.72216800 </v>
    <v>       0.37605200       0.05693750       0.15020400 </v>
    <v>       0.29592200       0.59773300       0.94102300 </v>
    <v>       0.62217300       0.48455400       0.14058500 </v>
    <v>       0.51904700       0.25969800       0.14446500 </v>
    <v>       0.99361900       0.47146400       0.64095300 </v>
    <v>       0.84967100       0.64398400       0.59856100 </v>
    <v>       0.11097500       0.05901050       0.20802800 </v>
    <v>       0.21843900       0.53220000       0.56092500 </v>
    <v>       0.72889600       0.30296100       0.49899800 </v>
    <v>       0.00622000       0.63164100       0.21546200 </v>
    <v>       0.77871900       0.66625000       0.82592900 </v>
    <v>       0.65863000       0.21589000       0.70347300 </v>
    <v>       0.27490100       0.98294400       0.36542000 </v>
    <v>       0.06351760       0.54187400       0.99260100 </v>
    <v>       0.97664000       0.33110200       0.45587500 </v>
    <v>       0.56595600       0.38538600       0.35559400 </v>
    <v>       0.63984800       0.06531580       0.11684700 </v>
    <v>       0.22914300       0.38946700       0.03049280 </v>
    <v>       0.29132800       0.36603700       0.81012700 </v>
    <v>       0.16163300       0.30232200       0.61356900 </v>
    <v>       0.45697200       0.42853700       0.98237700 </v>
    <v>       0.25909300       0.86266200       0.16622900 </v>
    <v>       0.89606700       0.47979300       0.85346300 </v>
    <v>       0.30619800       0.12009200       0.56363500 </v>
    <v>       0.24806300       0.99727200       0.95939300 </v>
    <v>       0.60752500       0.60567600       0.66821500 </v>
    <v>       0.52006900       0.39042900       0.75251100 </v>
    <v>       0.71887000       0.05017040       0.90418600 </v>
    <v>       0.42546400       0.18676700       0.75282700 </v>
    <v>       0.44325600       0.65512200       0.10215000 </v>
    <v>       0.81352400       0.38044200       0.29689300 </v>
    <v>       0.78365400       0.60702700       0.27301400 </v>
    <v>       0.28235800       0.35167100       0.41519600 </v>
    <v>       0.54544500       0.98638300       0.31111700 </v>
    <v>       0.70354200       0.81199200       0.25070100 </v>
    <v>       0.87438600       0.11839100       0.05747750 </v>
    <v>       0.21499500       0.61546400       0.14880000 </v>
   </varray>
  </structure>
  <varray name="forces" >
   <v>      -0.83853204      -0.48278932      -1.57253441 </v>
   <v>      -0.27966419      -0.11018996      -0.15722596 </v>
   <v>       0.35604442      -1.60328723      -0.03225265 </v>
   <v>      -0.49484522       0.67960955      -0.55379187 </v>
   <v>      -0.24066103      -0.48634895      -0.00580193 </v>
   <v>      -1.32068369       0.14510183       0.09075892 </v>
   <v>      -0.56167726       0.11750324       0.49652730 </v>
   <v>       1.44230914       0.59499240       0.18069470 </v>
   <v>      -0.34159848      -0.78143202       0.02990938 </v>
   <v>      -0.63588694      -0.30825321      -1.46668092 </v>
   <v>       2.34901544       0.18768365      -0.18844918 </v>
   <v>      -0.05014786      -0.78051857       0.02559246 </v>
   <v>       0.62177017       1.03019297      -0.38767625 </v>
   <v>       0.73610108       2.14503893       0.35861451 </v>
   <v>       0.40993129      -0.40090061       0.59290119 </v>
   <v>       0.84112412       0.80804484      -0.70386153 </v>
   <v>      -0.89917812       0.29946022      -0.87159070 </v>
   <v>      -0.07097587       0.14416566       0.94226392 </v>
   <v>      -0.09739960       0.86925541       1.20757490 </v>
   <v>      -1.39620706      -0.72508564      -0.28743792 </v>
   <v>      -0.30827729       0.54007663      -0.92032631 </v>
   <v>       0.75303593       0.33181530       0.10841604 </v>
   <v>      -0.80243532      -0.38742939      -1.13083104 </v>
   <v>       0.72930284       0.72699313       0.98629491 </v>
   <v>      -0.03197828      -1.96674874       0.37015540 </v>
   <v>      -0.53594709      -1.56831520       0.38365886 </v>
   <v>      -1.27859942       0.57138533      -1.13716719 </v>
   <v>       1.25158917      -0.80135918      -0.02695440 </v>
   <v>       0.50926403       0.11273239       0.52480074 </v>
   <v>      -0.17917488      -0.07585846      -0.76715117 </v>
   <v>      -0.35390818      -0.77518602      -0.13280476 </v>
   <v>      -0.60772651      -0.70128506       0.45584481 </v>
   <v>      -0.58832117      -0.64466024      -0.74089717 </v>
   <v>      -1.12728418       0.33965622      -0.36343878 </v>
   <v>       0.28850963       0.06775412       0.96297783 </v>
   <v>      -0.56452158      -0.01845901      -0.44180581 </v>
   <v>      -0.76273912      -0.35204721       0.93449824 </v>
   <v>       0.30303097      -1.07099998       0.08205610 </v>
   <v>      -0.61240580      -0.36857642       0.73723274 </v>
   <v>       0.00306509       0.65958489      -0.20688574 </v>
   <v>      -0.23291602      -0.23121375      -0.78475027 </v>
   <v>      -0.07479019       0.42578631       0.85772765 </v>
   <v>       0.13541545       0.52024051       0.72769952 </v>
   <v>       0.34184220      -0.48512676      -0.51565778 </v>
   <v>       1.11047820      -0.20416034      -0.15286198 </v>
   <v>      -0.32434238      -0.00966800      -0.71517555 </v>
   <v>       0.42223208      -0.49797399       0.22361329 </v>
   <v>       0.89058201      -0.87019449       1.78035123 </v>
   <v>       1.63586311      -0.78600064      -0.99701448 </v>
   <v>      -1.77555893       1.14792508      -0.35775019 </v>
   <v>       0.78464880      -0.47431572      -0.56794020 </v>
   <v>      -0.02507052       1.15512506      -0.14463782 </v>
   <v>       0.60536170       1.06268228       1.76882407 </v>
   <v>      -0.17889224       1.35773999       0.23959634 </v>
   <v>       1.87121688       0.88535531      -0.09404955 </v>
   <v>       1.14935314       0.79019922      -0.54287320 </v>
   <v>      -0.20981045      -0.69642430       1.09088792 </v>
   <v>       1.11913585      -1.21251380       0.72880921 </v>
   <v>      -0.39346870       0.31053489      -0.19192347 </v>
   <v>       0.21027197       1.27534960       0.39559025 </v>
   <v>       0.30899394      -1.29687947      -0.67903990 </v>
   <v>       0.98231050       0.19837833       0.22330087 </v>
   <v>       1.41442592      -0.41721428       0.85632712 </v>
   <v>       1.48144363      -0.68697510       0.64102097 </v>
   <v>       0.67736179      -0.43051325      -0.51739134 </v>
   <v>      -0.97534638       0.86450932       0.48543291 </v>
   <v>      -0.66118479       0.23671079       0.42179647 </v>
   <v>      -0.80359124      -0.64644908      -0.22544910 </v>
   <v>       0.35482588       0.17982779       1.34148927 </v>
   <v>       0.32754520      -0.25566588      -1.09059749 </v>
   <v>      -0.40116758      -2.37567939       0.00330132 </v>
   <v>      -0.03320345       0.19413397       0.40714919 </v>
   <v>      -1.09344836      -0.98933059       0.13497816 </v>
   <v>      -0.76153969      -0.07674950       0.08473573 </v>
   <v>      -0.76927509      -0.47986731       0.13299734 </v>
   <v>       0.30976121       0.42204479       0.09066355 </v>
   <v>       0.13436916       0.60877310      -0.18180984 </v>
   <v>      -0.08751560       0.53142202      -0.78916997 </v>
   <v>      -0.53213197      -0.06792174      -0.37270636 </v>
   <v>      -0.86842065       0.00422329      -0.35865361 </v>
   <v>      -1.07167647       0.59670727       0.83631235 </v>
   <v>       0.00735744       0.25338922      -0.98884399 </v>
   <v>      -0.22386650       0.50519217      -0.58946656 </v>
   <v>      -0.69077313       0.31671266       0.21229295 </v>
   <v>      -0.50211023      -0.20627394      -0.27607503 </v>
   <v>       0.55260908       0.84980388       0.07674287 </v>
   <v>      -0.48232044      -0.01231394      -0.85607393 </v>
   <v>      -0.85558351       0.56026787       0.86846730 </v>
   <v>      -0.01945397      -0.01232129       0.08112724 </v>
   <v>      -0.83527197       1.55439598      -0.68554418 </v>
   <v>      -0.65677761       0.93584496      -1.91482630 </v>
   <v>       0.66649207      -0.79162409      -0.10733694 </v>
   <v>       0.84859568      -1.46740755       0.66914349 </v>
   <v>       0.70419507       2.63876083       0.62948886 </v>
   <v>      -0.30567992      -0.96513453      -0.26404800 </v>
   <v>      -0.52455503       0.04133110      -0.30464912 </v>
   <v>      -0.05600047      -0.91957722       0.49047688 </v>
   <v>      -0.35128292      -0.19766889       0.19478212 </v>
   <v>       0.62630898       0.98552889      -0.10218108 </v>
   <v>       1.49071231       0.39294601       1.29816358 </v>
  </varray>
  <varray name="stress" >
   <v>     558.34548785     -11.48526682      13.61976498 </v>
   <v>     -11.48526675     634.99650429      24.91271068 </v>
   <v>      13.61976482      24.91271073     544.36572302 </v>
  </varray>
  <energy>
   <i name="e_fr_energy">   -427.91683734 </i>
   <i name="e_wo_entrp">   -427.88753227 </i>
   <i name="e_0_energy">     -0.05861015 </i>
  </energy>
  <time name="totalsc">   33.33   37.05</time>
  <eigenvalues>
   <array>
    <dimension dim="1">band</dimension>
    <dimension dim="2">kpoint</dimension>
    <dimension dim="3">spin</dimension>
    <field>eigene</field>
    <field>occ</field>
    <set>
     <set comment="spin 1">
      <set comment="kpoint 1">
       <r>   -3.0266    1.0000 </r>
       <r>   -1.9365    1.0000 </r>
       <r>   -1.6529    1.0000 </r>
       <r>   -1.6273    1.0000 </r>
       <r>   -1.5588    1.0000 </r>
       <r>   -1.5068    1.0000 </r>
       <r>   -1.4343    1.0000 </r>
       <r>   -0.5787    1.0000 </r>
       <r>   -0.4814    1.0000 </r>
       <r>   -0.4132    1.0000 </r>
       <r>   -0.3224    1.0000 </r>
       <r>   -0.2865    1.0000 </r>
       <r>   -0.2044    1.0000 </r>
       <r>   -0.1552    1.0000 </r>
       <r>   -0.1388    1.0000 </r>
       <r>   -0.0680    1.0000 </r>
       <r>   -0.0030    1.0000 </r>
       <r>    0.0610    1.0000 </r>
       <r>    0.0962    1.0000 </r>
       <r>    0.9652    1.0000 </r>
       <r>    1.0512    1.0000 </r>
       <r>    1.1063    1.0000 </r>
       <r>    1.1478    1.0000 </r>
       <r>    1.1943    1.0000 </r>
       <r>    1.2520    1.0000 </r>
       <r>    1.3469    1.0000 </r>
       <r>    1.4116    1.0000 </r>
       <r>    2.3212    1.0000 </r>
       <r>    2.3801    1.0000 </r>
       <r>    2.4241    1.0000 </r>
       <r>    2.4846    1.0000 </r>
       <r>    2.5975    1.0000 </r>
       <r>    2.6119    1.0000 </r>
       <r>    3.3291    1.0000 </r>
       <r>    3.4686    1.0000 </r>
       <r>    3.5179    1.0000 </r>
       <r>    3.5662    1.0000 </r>
       <r>    3.6173    1.0000 </r>
       <r>    3.6453    1.0000 </r>
       <r>    3.6753    1.0000 </r>
       <r>    3.7091    1.0000 </r>
       <r>    3.7619    1.0000 </r>
       <r>    3.7712    1.0000 </r>
       <r>    3.7851    1.0000 </r>
       <r>    3.8088    1.0000 </r>
       <r>    3.8267    1.0000 </r>
       <r>    3.8669    1.0000 </r>
       <r>    3.9291    1.0000 </r>
       <r>    3.9331    1.0000 </r>
       <r>    3.9686    1.0000 </r>
       <r>    3.9981    1.0000 </r>
       <r>    4.0355    1.0000 </r>
       <r>    4.0931    1.0000 </r>
       <r>    4.1291    1.0000 </r>
       <r>    4.1738    1.0000 </r>
       <r>    4.2419    1.0000 </r>
       <r>    4.3030    1.0000 </r>
       <r>    4.7927    1.0000 </r>
       <r>    4.8505    1.0000 </r>
       <r>    4.9039    1.0000 </r>
       <r>    4.9487    1.0000 </r>
       <r>    5.0042    1.0000 </r>
       <r>    5.0387    1.0000 </r>
       <r>    5.0467    1.0000 </r>
       <r>    5.0925    1.0000 </r>
       <r>    5.1202    1.0000 </r>
       <r>    5.1416    1.0000 </r>
       <r>    5.1638    1.0000 </r>
       <r>    5.1930    1.0000 </r>
       <r>    5.2399    1.0000 </r>
       <r>    5.3059    1.0000 </r>
       <r>    5.3185    1.0000 </r>
       <r>    5.3284    1.0000 </r>
       <r>    5.3769    1.0000 </r>
       <r>    5.3894    1.0000 </r>
       <r>    5.4299    1.0000 </r>
       <r>    5.5132    1.0000 </r>
       <r>    5.5355    1.0000 </r>
       <r>    5.5982    1.0000 </r>
       <r>    5.7071    1.0000 </r>
       <r>    5.8044    1.0000 </r>
       <r>    7.4094    1.0000 </r>
       <r>    7.4977    1.0000 </r>
       <r>    7.5455    1.0000 </r>
       <r>    7.5748    1.0000 </r>
       <r>    7.6840    1.0000 </r>
       <r>    7.7000    1.0000 </r>
       <r>    7.7344    1.0000 </r>
       <r>    7.7760    1.0000 </r>
       <r>    7.8216    1.0000 </r>
       <r>    7.8312    1.0000 </r>
       <r>    7.9278    1.0000 </r>
       <r>    7.9554    1.0000 </r>
       <r>    8.4346    1.0000 </r>
       <r>    8.5198    1.0000 </r>
       <r>    8.5712    1.0000 </r>
       <r>    8.6518    1.0000 </r>
       <r>    8.6621    1.0000 </r>
       <r>    8.7272    1.0000 </r>
       <r>    8.7785    1.0000 </r>
       <r>    8.7950    1.0000 </r>
       <r>    8.8408    1.0000 </r>
       <r>    8.8695    1.0000 </r>
       <r>    8.9531    1.0000 </r>
       <r>    8.9692    1.0000 </r>
       <r>    8.9903    1.0000 </r>
       <r>    9.0145    1.0000 </r>
       <r>    9.0733    1.0000 </r>
       <r>    9.1189    1.0000 </r>
       <r>    9.1464    1.0000 </r>
       <r>    9.1749    1.0000 </r>
       <r>    9.2244    1.0000 </r>
       <r>    9.2528    1.0000 </r>
       <r>    9.2854    1.0000 </r>
       <r>    9.3192    1.0000 </r>
       <r>    9.3681    1.0000 </r>
       <r>    9.3996    1.0000 </r>
       <r>    9.4407    1.0000 </r>
       <r>    9.4873    1.0000 </r>
       <r>    9.5484    1.0000 </r>
       <r>    9.6511    1.0000 </r>
       <r>    9.7645    1.0000 </r>
       <r>    9.8177    1.0000 </r>
       <r>   10.0079    1.0000 </r>
       <r>   10.0934    1.0000 </r>
       <r>   10.1261    1.0000 </r>
       <r>   10.1709    1.0000 </r>
       <r>   10.1851    1.0000 </r>
       <r>   10.2174    1.0000 </r>
       <r>   10.2597    1.0000 </r>
       <r>   10.2942    1.0000 </r>
       <r>   10.3286    1.0000 </r>
       <r>   10.4206    1.0000 </r>
       <r>   10.4621    1.0000 </r>
       <r>   10.5275    1.0000 </r>
       <r>   10.5730    1.0000 </r>
       <r>   10.5868    1.0000 </r>
       <r>   10.6060    1.0000 </r>
       <r>   10.6700    1.0000 </r>
       <r>   10.6834    1.0000 </r>
       <r>   10.7187    1.0000 </r>
       <r>   10.7432    1.0000 </r>
       <r>   10.8245    1.0000 </r>
       <r>   10.9502    1.0000 </r>
       <r>   10.9993    1.0000 </r>
       <r>   11.0209    1.0000 </r>
       <r>   11.0551    1.0000 </r>
       <r>   11.3488    1.0000 </r>
       <r>   11.4310    1.0000 </r>
       <r>   11.5455    1.0000 </r>
       <r>   11.5631    1.0000 </r>
       <r>   11.6327    1.0000 </r>
       <r>   11.6576    1.0000 </r>
       <r>   11.6845    1.0000 </r>
       <r>   11.6995    1.0000 </r>
       <r>   11.7472    1.0000 </r>
       <r>   11.7626    1.0000 </r>
       <r>   11.7949    1.0000 </r>
       <r>   11.8061    1.0000 </r>
       <r>   11.9040    1.0000 </r>
       <r>   11.9451    1.0000 </r>
       <r>   11.9801    1.0000 </r>
       <r>   12.0178    1.0000 </r>
       <r>   12.0733    1.0000 </r>
       <r>   12.1254    1.0000 </r>
       <r>   12.1385    1.0000 </r>
       <r>   12.1453    1.0000 </r>
       <r>   12.1649    1.0000 </r>
       <r>   12.2335    1.0000 </r>
       <r>   12.2985    1.0000 </r>
       <r>   12.4141    1.0000 </r>
       <r>   12.7071    1.0000 </r>
       <r>   12.9386    1.0000 </r>
       <r>   13.0858    1.0000 </r>
       <r>   13.1640    1.0000 </r>
       <r>   13.3176    1.0000 </r>
       <r>   13.3248    1.0000 </r>
       <r>   13.3872    1.0000 </r>
       <r>   13.4540    1.0000 </r>
       <r>   13.6523    1.0000 </r>
       <r>   13.7331    1.0000 </r>
       <r>   13.7824    1.0000 </r>
       <r>   13.8120    1.0000 </r>
       <r>   13.9582    1.0000 </r>
       <r>   14.0610    1.0000 </r>
       <r>   14.1003    1.0000 </r>
       <r>   14.1765    1.0000 </r>
       <r>   14.2060    1.0000 </r>
       <r>   14.2233    1.0000 </r>
       <r>   14.3259    1.0000 </r>
       <r>   14.3612    1.0000 </r>
       <r>   14.3783    1.0000 </r>
       <r>   14.4413    1.0000 </r>
       <r>   14.5263    1.0000 </r>
       <r>   14.5889    1.0000 </r>
       <r>   14.6288    1.0000 </r>
       <r>   14.7002    1.0000 </r>
       <r>   14.7045    1.0000 </r>
       <r>   14.7947    0.9283 </r>
       <r>   14.8189    0.7819 </r>
       <r>   14.8672    0.2791 </r>
       <r>   14.9239    0.0142 </r>
       <r>   14.9296    0.0094 </r>
       <r>   14.9958    0.0000 </r>
       <r>   15.0713    0.0000 </r>
       <r>   15.1335    0.0000 </r>
       <r>   15.1731    0.0000 </r>
       <r>   15.1778    0.0000 </r>
       <r>   15.2454    0.0000 </r>
       <r>   15.2686    0.0000 </r>
       <r>   15.3552    0.0000 </r>
       <r>   15.3790    0.0000 </r>
       <r>   15.4151    0.0000 </r>
       <r>   15.4394    0.0000 </r>
       <r>   15.4719    0.0000 </r>
       <r>   15.5400    0.0000 </r>
       <r>   15.5692    0.0000 </r>
       <r>   15.6122    0.0000 </r>
       <r>   15.6451    0.0000 </r>
       <r>   15.6791    0.0000 </r>
       <r>   15.7057    0.0000 </r>
       <r>   15.7673    0.0000 </r>
       <r>   15.7808    0.0000 </r>
       <r>   15.7951    0.0000 </r>
       <r>   15.8439    0.0000 </r>
       <r>   15.8738    0.0000 </r>
       <r>   15.8935    0.0000 </r>
       <r>   15.9105    0.0000 </r>
       <r>   15.9216    0.0000 </r>
       <r>   15.9669    0.0000 </r>
       <r>   16.0078    0.0000 </r>
       <r>   16.1097    0.0000 </r>
       <r>   16.1372    0.0000 </r>
       <r>   16.2065    0.0000 </r>
       <r>   16.2284    0.0000 </r>
       <r>   16.2350    0.0000 </r>
       <r>   16.2563    0.0000 </r>
       <r>   16.3588    0.0000 </r>
       <r>   16.3739    0.0000 </r>
       <r>   16.3851    0.0000 </r>
       <r>   16.4596    0.0000 </r>
       <r>   16.5267    0.0000 </r>
       <r>   16.5565    0.0000 </r>
       <r>   16.6321    0.0000 </r>
       <r>   16.6845    0.0000 </r>
       <r>   16.7658    0.0000 </r>
       <r>   16.8197    0.0000 </r>
       <r>   16.8463    0.0000 </r>
       <r>   16.9193    0.0000 </r>
       <r>   16.9650    0.0000 </r>
       <r>   17.0545    0.0000 </r>
       <r>   17.8342    0.0000 </r>
       <r>   17.9030    0.0000 </r>
       <r>   18.0995    0.0000 </r>
       <r>   18.1472    0.0000 </r>
       <r>   18.3315    0.0000 </r>
       <r>   18.4457    0.0000 </r>
       <r>   18.7210    0.0000 </r>
       <r>   18.7544    0.0000 </r>
       <r>   18.7914    0.0000 </r>
       <r>   18.8249    0.0000 </r>
       <r>   18.8426    0.0000 </r>
       <r>   18.8772    0.0000 </r>
       <r>   18.9075    0.0000 </r>
       <r>   18.9625    0.0000 </r>
       <r>   18.9685    0.0000 </r>
       <r>   18.9889    0.0000 </r>
       <r>   19.0116    0.0000 </r>
       <r>   19.0500    0.0000 </r>
       <r>   19.1044    0.0000 </r>
       <r>   19.1604    0.0000 </r>
       <r>   19.1856    0.0000 </r>
       <r>   19.1974    0.0000 </r>
       <r>   19.2552    0.0000 </r>
       <r>   19.2778    0.0000 </r>
       <r>   19.3087    0.0000 </r>
       <r>   19.3251    0.0000 </r>
       <r>   19.3504    0.0000 </r>
       <r>   19.3725    0.0000 </r>
       <r>   19.4233    0.0000 </r>
       <r>   19.4758    0.0000 </r>
       <r>   19.5036    0.0000 </r>
       <r>   19.5223    0.0000 </r>
       <r>   19.5327    0.0000 </r>
       <r>   19.5810    0.0000 </r>
       <r>   19.6058    0.0000 </r>
       <r>   19.6275    0.0000 </r>
       <r>   19.6905    0.0000 </r>
       <r>   19.7079    0.0000 </r>
       <r>   19.7464    0.0000 </r>
       <r>   19.7824    0.0000 </r>
       <r>   19.7962    0.0000 </r>
       <r>   19.8579    0.0000 </r>
       <r>   19.8683    0.0000 </r>
       <r>   19.9180    0.0000 </r>
       <r>   19.9653    0.0000 </r>
       <r>   20.0304    0.0000 </r>
       <r>   20.0940    0.0000 </r>
       <r>   20.1418    0.0000 </r>
       <r>   20.1795    0.0000 </r>
       <r>   20.2599    0.0000 </r>
       <r>   20.2913    0.0000 </r>
       <r>   20.3714    0.0000 </r>
       <r>   20.4734    0.0000 </r>
      </set>
     </set>
     <set comment="spin 2">
      <set comment="kpoint 1">
       <r>   -3.0262    1.0000 </r>
       <r>   -1.9361    1.0000 </r>
       <r>   -1.6525    1.0000 </r>
       <r>   -1.6268    1.0000 </r>
       <r>   -1.5584    1.0000 </r>
       <r>   -1.5063    1.0000 </r>
       <r>   -1.4338    1.0000 </r>
       <r>   -0.5782    1.0000 </r>
       <r>   -0.4809    1.0000 </r>
       <r>   -0.4128    1.0000 </r>
       <r>   -0.3220    1.0000 </r>
       <r>   -0.2861    1.0000 </r>
       <r>   -0.2040    1.0000 </r>
       <r>   -0.1547    1.0000 </r>
       <r>   -0.1384    1.0000 </r>
       <r>   -0.0675    1.0000 </r>
       <r>   -0.0025    1.0000 </r>
       <r>    0.0615    1.0000 </r>
       <r>    0.0966    1.0000 </r>
       <r>    0.9657    1.0000 </r>
       <r>    1.0516    1.0000 </r>
       <r>    1.1068    1.0000 </r>
       <r>    1.1483    1.0000 </r>
       <r>    1.1948    1.0000 </r>
       <r>    1.2524    1.0000 </r>
       <r>    1.3474    1.0000 </r>
       <r>    1.4120    1.0000 </r>
       <r>    2.3217    1.0000 </r>
       <r>    2.3805    1.0000 </r>
       <r>    2.4245    1.0000 </r>
       <r>    2.4850    1.0000 </r>
       <r>    2.5980    1.0000 </r>
       <r>    2.6124    1.0000 </r>
       <r>    3.3296    1.0000 </r>
       <r>    3.4691    1.0000 </r>
       <r>    3.5183    1.0000 </r>
       <r>    3.5666    1.0000 </r>
       <r>    3.6177    1.0000 </r>
       <r>    3.6457    1.0000 </r>
       <r>    3.6758    1.0000 </r>
       <r>    3.7095    1.0000 </r>
       <r>    3.7623    1.0000 </r>
       <r>    3.7717    1.0000 </r>
       <r>    3.7855    1.0000 </r>
       <r>    3.8092    1.0000 </r>
       <r>    3.8271    1.0000 </r>
       <r>    3.8673    1.0000 </r>
       <r>    3.9295    1.0000 </r>
       <r>    3.9336    1.0000 </r>
       <r>    3.9691    1.0000 </r>
       <r>    3.9986    1.0000 </r>
       <r>    4.0359    1.0000 </r>
       <r>    4.0937    1.0000 </r>
       <r>    4.1295    1.0000 </r>
       <r>    4.1743    1.0000 </r>
       <r>    4.2423    1.0000 </r>
       <r>    4.3037    1.0000 </r>
       <r>    4.7931    1.0000 </r>
       <r>    4.8509    1.0000 </r>
       <r>    4.9043    1.0000 </r>
       <r>    4.9491    1.0000 </r>
       <r>    5.0047    1.0000 </r>
       <r>    5.0391    1.0000 </r>
       <r>    5.0471    1.0000 </r>
       <r>    5.0930    1.0000 </r>
       <r>    5.1206    1.0000 </r>
       <r>    5.1421    1.0000 </r>
       <r>    5.1643    1.0000 </r>
       <r>    5.1934    1.0000 </r>
       <r>    5.2403    1.0000 </r>
       <r>    5.3063    1.0000 </r>
       <r>    5.3190    1.0000 </r>
       <r>    5.3288    1.0000 </r>
       <r>    5.3774    1.0000 </r>
       <r>    5.3898    1.0000 </r>
       <r>    5.4304    1.0000 </r>
       <r>    5.5136    1.0000 </r>
       <r>    5.5359    1.0000 </r>
       <r>    5.5986    1.0000 </r>
       <r>    5.7077    1.0000 </r>
       <r>    5.8050    1.0000 </r>
       <r>    7.4099    1.0000 </r>
       <r>    7.4982    1.0000 </r>
       <r>    7.5459    1.0000 </r>
       <r>    7.5752    1.0000 </r>
       <r>    7.6845    1.0000 </r>
       <r>    7.7003    1.0000 </r>
       <r>    7.7348    1.0000 </r>
       <r>    7.7765    1.0000 </r>
       <r>    7.8221    1.0000 </r>
       <r>    7.8317    1.0000 </r>
       <r>    7.9282    1.0000 </r>
       <r>    7.9559    1.0000 </r>
       <r>    8.4349    1.0000 </r>
       <r>    8.5203    1.0000 </r>
       <r>    8.5716    1.0000 </r>
       <r>    8.6522    1.0000 </r>
       <r>    8.6625    1.0000 </r>
       <r>    8.7277    1.0000 </r>
       <r>    8.7789    1.0000 </r>
       <r>    8.7955    1.0000 </r>
       <r>    8.8413    1.0000 </r>
       <r>    8.8700    1.0000 </r>
       <r>    8.9535    1.0000 </r>
       <r>    8.9697    1.0000 </r>
       <r>    8.9908    1.0000 </r>
       <r>    9.0149    1.0000 </r>
       <r>    9.0738    1.0000 </r>
       <r>    9.1194    1.0000 </r>
       <r>    9.1469    1.0000 </r>
       <r>    9.1753    1.0000 </r>
       <r>    9.2248    1.0000 </r>
       <r>    9.2533    1.0000 </r>
       <r>    9.2859    1.0000 </r>
       <r>    9.3197    1.0000 </r>
       <r>    9.3686    1.0000 </r>
       <r>    9.4001    1.0000 </r>
       <r>    9.4412    1.0000 </r>
       <r>    9.4877    1.0000 </r>
       <r>    9.5488    1.0000 </r>
       <r>    9.6515    1.0000 </r>
       <r>    9.7651    1.0000 </r>
       <r>    9.8182    1.0000 </r>
       <r>   10.0083    1.0000 </r>
       <r>   10.0938    1.0000 </r>
       <r>   10.1266    1.0000 </r>
       <r>   10.1713    1.0000 </r>
       <r>   10.1855    1.0000 </r>
       <r>   10.2179    1.0000 </r>
       <r>   10.2601    1.0000 </r>
       <r>   10.2947    1.0000 </r>
       <r>   10.3291    1.0000 </r>
       <r>   10.4210    1.0000 </r>
       <r>   10.4626    1.0000 </r>
       <r>   10.5279    1.0000 </r>
       <r>   10.5735    1.0000 </r>
       <r>   10.5873    1.0000 </r>
       <r>   10.6065    1.0000 </r>
       <r>   10.6704    1.0000 </r>
       <r>   10.6838    1.0000 </r>
       <r>   10.7191    1.0000 </r>
       <r>   10.7436    1.0000 </r>
       <r>   10.8250    1.0000 </r>
       <r>   10.9506    1.0000 </r>
       <r>   10.9998    1.0000 </r>
       <r>   11.0213    1.0000 </r>
       <r>   11.0555    1.0000 </r>
       <r>   11.3492    1.0000 </r>
       <r>   11.4314    1.0000 </r>
       <r>   11.5461    1.0000 </r>
       <r>   11.5635    1.0000 </r>
       <r>   11.6332    1.0000 </r>
       <r>   11.6580    1.0000 </r>
       <r>   11.6849    1.0000 </r>
       <r>   11.7000    1.0000 </r>
       <r>   11.7477    1.0000 </r>
       <r>   11.7631    1.0000 </r>
       <r>   11.7954    1.0000 </r>
       <r>   11.8065    1.0000 </r>
       <r>   11.9045    1.0000 </r>
       <r>   11.9456    1.0000 </r>
       <r>   11.9806    1.0000 </r>
       <r>   12.0182    1.0000 </r>
       <r>   12.0737    1.0000 </r>
       <r>   12.1259    1.0000 </r>
       <r>   12.1390    1.0000 </r>
       <r>   12.1457    1.0000 </r>
       <r>   12.1655    1.0000 </r>
       <r>   12.2340    1.0000 </r>
       <r>   12.2989    1.0000 </r>
       <r>   12.4145    1.0000 </r>
       <r>   12.7075    1.0000 </r>
       <r>   12.9390    1.0000 </r>
       <r>   13.0862    1.0000 </r>
       <r>   13.1644    1.0000 </r>
       <r>   13.3180    1.0000 </r>
       <r>   13.3253    1.0000 </r>
       <r>   13.3876    1.0000 </r>
       <r>   13.4544    1.0000 </r>
       <r>   13.6528    1.0000 </r>
       <r>   13.7335    1.0000 </r>
       <r>   13.7828    1.0000 </r>
       <r>   13.8124    1.0000 </r>
       <r>   13.9586    1.0000 </r>
       <r>   14.0614    1.0000 </r>
       <r>   14.1007    1.0000 </r>
       <r>   14.1769    1.0000 </r>
       <r>   14.2064    1.0000 </r>
       <r>   14.2237    1.0000 </r>
       <r>   14.3263    1.0000 </r>
       <r>   14.3617    1.0000 </r>
       <r>   14.3787    1.0000 </r>
       <r>   14.4418    1.0000 </r>
       <r>   14.5268    1.0000 </r>
       <r>   14.5894    1.0000 </r>
       <r>   14.6293    1.0000 </r>
       <r>   14.7006    1.0000 </r>
       <r>   14.7049    1.0000 </r>
       <r>   14.7952    0.9264 </r>
       <r>   14.8200    0.7729 </r>
       <r>   14.8687    0.2649 </r>
       <r>   14.9243    0.0138 </r>
       <r>   14.9300    0.0091 </r>
       <r>   14.9962    0.0000 </r>
       <r>   15.0717    0.0000 </r>
       <r>   15.1339    0.0000 </r>
       <r>   15.1735    0.0000 </r>
       <r>   15.1782    0.0000 </r>
       <r>   15.2459    0.0000 </r>
       <r>   15.2690    0.0000 </r>
       <r>   15.3556    0.0000 </r>
       <r>   15.3795    0.0000 </r>
       <r>   15.4156    0.0000 </r>
       <r>   15.4398    0.0000 </r>
       <r>   15.4723    0.0000 </r>
       <r>   15.5405    0.0000 </r>
       <r>   15.5696    0.0000 </r>
       <r>   15.6127    0.0000 </r>
[...]
       <r>    -1.0996     0.0000     7.0000 </r>
       <r>    -1.0135     0.0000     7.0000 </r>
       <r>    -0.9273     0.0000     7.0000 </r>
       <r>    -0.8411     0.0000     7.0000 </r>
       <r>    -0.7550     0.0000     7.0000 </r>
       <r>    -0.6688     0.0606     7.0052 </r>
       <r>    -0.5826     5.1934     7.4527 </r>
       <r>    -0.4965    10.1670     8.3288 </r>
       <r>    -0.4103    13.7247     9.5114 </r>
       <r>    -0.3241    12.7594    10.6108 </r>
       <r>    -0.2380    17.0991    12.0842 </r>
       <r>    -0.1518    20.1875    13.8237 </r>
       <r>    -0.0656    19.8362    15.5329 </r>
       <r>     0.0205    15.5873    16.8760 </r>
       <r>     0.1067    18.9789    18.5114 </r>
       <r>     0.1929     5.6322    18.9967 </r>
       <r>     0.2790     0.0387    19.0000 </r>
       <r>     0.3652     0.0000    19.0000 </r>
       <r>     0.4514     0.0000    19.0000 </r>
       <r>     0.5375     0.0000    19.0000 </r>
       <r>     0.6237     0.0000    19.0000 </r>
       <r>     0.7099     0.0000    19.0000 </r>
       <r>     0.7960     0.0000    19.0000 </r>
       <r>     0.8822     0.1060    19.0091 </r>
       <r>     0.9684     6.1608    19.5400 </r>
       <r>     1.0545    12.3151    20.6011 </r>
       <r>     1.1407    19.7698    22.3046 </r>
       <r>     1.2269    20.1338    24.0395 </r>
       <r>     1.3130    12.5930    25.1246 </r>
       <r>     1.3992    13.4995    26.2878 </r>
       <r>     1.4854     8.0451    26.9810 </r>
       <r>     1.5715     0.2202    27.0000 </r>
       <r>     1.6577     0.0000    27.0000 </r>
       <r>     1.7439     0.0000    27.0000 </r>
       <r>     1.8300     0.0000    27.0000 </r>
       <r>     1.9162     0.0000    27.0000 </r>
       <r>     2.0024     0.0000    27.0000 </r>
       <r>     2.0885     0.0000    27.0000 </r>
       <r>     2.1747     0.0002    27.0000 </r>
       <r>     2.2609     0.5007    27.0432 </r>
       <r>     2.3470    10.5212    27.9497 </r>
       <r>     2.4332    19.1466    29.5995 </r>
       <r>     2.5194    14.4912    30.8482 </r>
       <r>     2.6055    13.4599    32.0080 </r>
       <r>     2.6917    11.3223    32.9836 </r>
       <r>     2.7779     0.1905    33.0000 </r>
       <r>     2.8640     0.0000    33.0000 </r>
       <r>     2.9502     0.0000    33.0000 </r>
       <r>     3.0364     0.0000    33.0000 </r>
       <r>     3.1225     0.0000    33.0000 </r>
       <r>     3.2087     0.0037    33.0003 </r>
       <r>     3.2949     1.8919    33.1633 </r>
       <r>     3.3810     8.9414    33.9338 </r>
       <r>     3.4672     7.2133    34.5553 </r>
       <r>     3.5534    19.3619    36.2237 </r>
       <r>     3.6395    24.3183    38.3191 </r>
       <r>     3.7257    29.8190    40.8885 </r>
       <r>     3.8119    41.7408    44.4852 </r>
       <r>     3.8980    30.8944    47.1472 </r>
       <r>     3.9842    32.4427    49.9427 </r>
       <r>     4.0704    25.2172    52.1156 </r>
       <r>     4.1565    22.5112    54.0553 </r>
       <r>     4.2427    16.9904    55.5193 </r>
       <r>     4.3289    14.3390    56.7549 </r>
       <r>     4.4150     2.8352    56.9992 </r>
       <r>     4.5012     0.0095    57.0000 </r>
       <r>     4.5874     0.0000    57.0000 </r>
       <r>     4.6735     0.0042    57.0004 </r>
       <r>     4.7597     2.0550    57.1774 </r>
       <r>     4.8459    14.4938    58.4263 </r>
       <r>     4.9320    19.5301    60.1092 </r>
       <r>     5.0182    23.4192    62.1271 </r>
       <r>     5.1044    33.9925    65.0561 </r>
       <r>     5.1905    36.5696    68.2072 </r>
       <r>     5.2767    23.4651    70.2291 </r>
       <r>     5.3629    35.2061    73.2627 </r>
       <r>     5.4490    27.9770    75.6734 </r>
       <r>     5.5352    18.3689    77.2562 </r>
       <r>     5.6214    17.2090    78.7391 </r>
       <r>     5.7075     8.8381    79.5006 </r>
       <r>     5.7937    10.0624    80.3676 </r>
       <r>     5.8799     7.1408    80.9829 </r>
       <r>     5.9660     0.1979    81.0000 </r>
       <r>     6.0522     0.0000    81.0000 </r>
       <r>     6.1384     0.0000    81.0000 </r>
       <r>     6.2245     0.0000    81.0000 </r>
       <r>     6.3107     0.0000    81.0000 </r>
       <r>     6.3969     0.0000    81.0000 </r>
       <r>     6.4830     0.0000    81.0000 </r>
       <r>     6.5692     0.0000    81.0000 </r>
       <r>     6.6554     0.0000    81.0000 </r>
       <r>     6.7415     0.0000    81.0000 </r>
       <r>     6.8277     0.0000    81.0000 </r>
       <r>     6.9139     0.0000    81.0000 </r>
       <r>     7.0000     0.0000    81.0000 </r>
       <r>     7.0862     0.0000    81.0000 </r>
       <r>     7.1724     0.0000    81.0000 </r>
       <r>     7.2585     0.0001    81.0000 </r>
       <r>     7.3447     0.3795    81.0327 </r>
       <r>     7.4309     8.3602    81.7531 </r>
       <r>     7.5170    13.9979    82.9592 </r>
       <r>     7.6032    20.7343    84.7458 </r>
       <r>     7.6894    15.0107    86.0393 </r>
       <r>     7.7755    28.4765    88.4930 </r>
       <r>     7.8617    25.5742    90.6966 </r>
       <r>     7.9479    16.5185    92.1200 </r>
       <r>     8.0340    10.0395    92.9851 </r>
       <r>     8.1202     0.1734    93.0000 </r>
       <r>     8.2064     0.0000    93.0000 </r>
       <r>     8.2925     0.0003    93.0000 </r>
       <r>     8.3787     0.6481    93.0559 </r>
       <r>     8.4649     9.3468    93.8613 </r>
       <r>     8.5510    14.2733    95.0911 </r>
       <r>     8.6372    16.8919    96.5467 </r>
       <r>     8.7234    22.2810    98.4665 </r>
       <r>     8.8095    25.6872   100.6799 </r>
       <r>     8.8957    24.3198   102.7755 </r>
       <r>     8.9819    25.8515   105.0030 </r>
       <r>     9.0680    28.2682   107.4388 </r>
       <r>     9.1542    26.3530   109.7095 </r>
       <r>     9.2404    27.7721   112.1026 </r>
       <r>     9.3265    28.6061   114.5675 </r>
       <r>     9.4127    25.4010   116.7562 </r>
       <r>     9.4989    21.9628   118.6486 </r>
       <r>     9.5850    14.2297   119.8748 </r>
       <r>     9.6712     9.7539   120.7152 </r>
       <r>     9.7574     8.5906   121.4554 </r>
       <r>     9.8435    15.0279   122.7504 </r>
       <r>     9.9297     3.0398   123.0123 </r>
       <r>    10.0159     6.8102   123.5991 </r>
       <r>    10.1020    14.7099   124.8666 </r>
       <r>    10.1882    29.3138   127.3925 </r>
       <r>    10.2744    29.5365   129.9375 </r>
       <r>    10.3605    21.9071   131.8252 </r>
       <r>    10.4467    14.8317   133.1032 </r>
       <r>    10.5329    18.9774   134.7384 </r>
       <r>    10.6190    31.5840   137.4599 </r>
       <r>    10.7052    30.0276   140.0473 </r>
       <r>    10.7914    23.3632   142.0604 </r>
       <r>    10.8775    10.3364   142.9511 </r>
       <r>    10.9637    10.4858   143.8546 </r>
       <r>    11.0499    26.5910   146.1459 </r>
       <r>    11.1360     9.7730   146.9880 </r>
       <r>    11.2222     0.1416   147.0002 </r>
       <r>    11.3084     1.4405   147.1243 </r>
       <r>    11.3945    10.7263   148.0485 </r>
       <r>    11.4807    10.5792   148.9601 </r>
       <r>    11.5669    15.4997   150.2957 </r>
       <r>    11.6530    24.7760   152.4305 </r>
       <r>    11.7392    35.9823   155.5310 </r>
       <r>    11.8254    34.0432   158.4644 </r>
       <r>    11.9115    15.1749   159.7720 </r>
       <r>    11.9977    24.7939   161.9084 </r>
       <r>    12.0839    22.0334   163.8069 </r>
       <r>    12.1700    37.5487   167.0424 </r>
       <r>    12.2562    20.8862   168.8421 </r>
       <r>    12.3424    12.3933   169.9100 </r>
       <r>    12.4285     8.6400   170.6544 </r>
       <r>    12.5147     3.9838   170.9977 </r>
       <r>    12.6009     0.0415   171.0013 </r>
       <r>    12.6870     3.2496   171.2813 </r>
       <r>    12.7732     7.9746   171.9684 </r>
       <r>    12.8594     0.5074   172.0122 </r>
       <r>    12.9455     6.5142   172.5735 </r>
       <r>    13.0317     5.6141   173.0572 </r>
       <r>    13.1179     9.8795   173.9085 </r>
       <r>    13.2040    11.1496   174.8692 </r>
       <r>    13.2902     5.9189   175.3792 </r>
       <r>    13.3764    21.8899   177.2654 </r>
       <r>    13.4625    15.1889   178.5742 </r>
       <r>    13.5487     4.9162   178.9978 </r>
       <r>    13.6349     3.6092   179.3088 </r>
       <r>    13.7210    12.4443   180.3811 </r>
       <r>    13.8072    20.8574   182.1783 </r>
       <r>    13.8934     9.7755   183.0206 </r>
       <r>    13.9795     8.2735   183.7335 </r>
       <r>    14.0657    11.3285   184.7096 </r>
       <r>    14.1519    17.7929   186.2428 </r>
       <r>    14.2380    25.4651   188.4370 </r>
       <r>    14.3242    14.4329   189.6807 </r>
       <r>    14.4104    25.8652   191.9094 </r>
       <r>    14.4965    14.2715   193.1391 </r>
       <r>    14.5827    15.3640   194.4630 </r>
       <r>    14.6689    20.1124   196.1960 </r>
       <r>    14.7550    21.1888   198.0218 </r>
       <r>    14.8412    21.3672   199.8629 </r>
       <r>    14.9274    24.5857   201.9814 </r>
       <r>    15.0135    20.2215   203.7238 </r>
       <r>    15.0997    14.6028   204.9821 </r>
       <r>    15.1859    25.8016   207.2053 </r>
       <r>    15.2720    24.4039   209.3081 </r>
       <r>    15.3582    18.0083   210.8598 </r>
       <r>    15.4444    30.9097   213.5232 </r>
       <r>    15.5305    22.6983   215.4791 </r>
       <r>    15.6167    25.6550   217.6897 </r>
       <r>    15.7029    29.1649   220.2027 </r>
       <r>    15.7890    30.1484   222.8005 </r>
       <r>    15.8752    35.4405   225.8543 </r>
       <r>    15.9614    39.7648   229.2807 </r>
       <r>    16.0475    18.7814   230.8990 </r>
       <r>    16.1337    15.4233   232.2280 </r>
       <r>    16.2199    26.4950   234.5110 </r>
       <r>    16.3060    28.6989   236.9839 </r>
       <r>    16.3922    24.8087   239.1215 </r>
       <r>    16.4784    19.3424   240.7882 </r>
       <r>    16.5645    19.4579   242.4648 </r>
       <r>    16.6507    16.1744   243.8585 </r>
       <r>    16.7369    14.8771   245.1404 </r>
       <r>    16.8230    18.4596   246.7310 </r>
       <r>    16.9092    19.2829   248.3926 </r>
       <r>    16.9954    16.6867   249.8304 </r>
       <r>    17.0815    10.9415   250.7732 </r>
       <r>    17.1677     2.6235   250.9993 </r>
       <r>    17.2539     0.0083   251.0000 </r>
       <r>    17.3400     0.0000   251.0000 </r>
       <r>    17.4262     0.0000   251.0000 </r>
       <r>    17.5124     0.0000   251.0000 </r>
       <r>    17.5985     0.0000   251.0000 </r>
       <r>    17.6847     0.0001   251.0000 </r>
       <r>    17.7709     0.4142   251.0357 </r>
       <r>    17.8570     9.2349   251.8314 </r>
       <r>    17.9432    12.0376   252.8687 </r>
       <r>    18.0294     1.7944   253.0233 </r>
       <r>    18.1155     9.6313   253.8532 </r>
       <r>    18.2017    12.5558   254.9351 </r>
       <r>    18.2879     1.9844   255.1061 </r>
       <r>    18.3740     9.2565   255.9037 </r>
       <r>    18.4602     8.7182   256.6549 </r>
       <r>    18.5464     3.9787   256.9977 </r>
       <r>    18.6325     0.0990   257.0062 </r>
       <r>    18.7187     7.3989   257.6438 </r>
       <r>    18.8049    27.3424   259.9998 </r>
       <r>    18.8910    33.4409   262.8813 </r>
       <r>    18.9772    33.5185   265.7695 </r>
       <r>    19.0634    33.6390   268.6680 </r>
       <r>    19.1495    21.3539   270.5080 </r>
       <r>    19.2357    31.0874   273.1867 </r>
       <r>    19.3219    35.4611   276.2423 </r>
       <r>    19.4080    33.5541   279.1335 </r>
       <r>    19.4942    26.4841   281.4156 </r>
       <r>    19.5804    37.5671   284.6526 </r>
       <r>    19.6665    29.4661   287.1916 </r>
       <r>    19.7527    29.6317   289.7449 </r>
       <r>    19.8389    29.9294   292.3238 </r>
       <r>    19.9250    27.4930   294.6928 </r>
       <r>    20.0112    17.9212   296.2370 </r>
       <r>    20.0974    18.0590   297.7931 </r>
       <r>    20.1835    18.5989   299.3957 </r>
       <r>    20.2697    22.6239   301.3451 </r>
       <r>    20.3559    17.4098   302.8452 </r>
       <r>    20.4420     9.1435   303.6331 </r>
       <r>    20.5282     4.2263   303.9973 </r>
       <r>    20.6144     0.0317   304.0000 </r>
       <r>    20.7005     0.0000   304.0000 </r>
       <r>    20.7867     0.0000   304.0000 </r>
       <r>    20.8729     0.0000   304.0000 </r>
       <r>    20.9590     0.0000   304.0000 </r>
       <r>    21.0452     0.0000   304.0000 </r>
       <r>    21.1314     0.0000   304.0000 </r>
       <r>    21.2175     0.0000   304.0000 </r>
       <r>    21.3037     0.0000   304.0000 </r>
       <r>    21.3899     0.0000   304.0000 </r>
       <r>    21.4760     0.0000   304.0000 </r>
       <r>    21.5622     0.0000   304.0000 </r>
       <r>    21.6484     0.0000   304.0000 </r>
      </set>
     </set>
    </array>
   </total>
  </dos>
 </calculation>
 <structure name="finalpos" >
  <crystal>
   <varray name="basis" >
    <v>      10.21149500       0.00000000       0.00000000 </v>
    <v>       0.00000000      10.21149500       0.00000000 </v>
    <v>       0.00000000       0.00000000      10.21149500 </v>
   </varray>
   <i name="volume">   1064.79986425 </i>
   <varray name="rec_basis" >
    <v>       0.09792885       0.00000000       0.00000000 </v>
    <v>       0.00000000       0.09792885       0.00000000 </v>
    <v>       0.00000000       0.00000000       0.09792885 </v>
   </varray>
  </crystal>
  <varray name="positions" >
   <v>       0.31029300       0.58853300       0.36053600 </v>
   <v>       0.61485700       0.10235400       0.50589600 </v>
   <v>       0.14390000       0.54613300       0.78271100 </v>
   <v>       0.71268800       0.52310400       0.47767500 </v>
   <v>       0.61932100       0.84991400       0.88556300 </v>
   <v>       0.00770000       0.71024400       0.79769500 </v>
   <v>       0.52844500       0.63620200       0.87863500 </v>
   <v>       0.66956100       0.46330400       0.91623800 </v>
   <v>       0.69392000       0.69548500       0.04403030 </v>
   <v>       0.03478300       0.55100400       0.42943600 </v>
   <v>       0.93355800       0.20547500       0.25849700 </v>
   <v>       0.38451500       0.44584900       0.20465500 </v>
   <v>       0.89088500       0.74160900       0.40691000 </v>
   <v>       0.52145100       0.85326800       0.11508000 </v>
   <v>       0.79755500       0.04586070       0.66782700 </v>
   <v>       0.04642140       0.31905900       0.84310300 </v>
   <v>       0.20414400       0.89766900       0.57076500 </v>
   <v>       0.02403290       0.96180500       0.40557400 </v>
   <v>       0.73631500       0.90916300       0.44508000 </v>
   <v>       0.72060000       0.83053600       0.66671300 </v>
   <v>       0.74602400       0.42924300       0.69715900 </v>
   <v>       0.93640600       0.87317300       0.60035200 </v>
   <v>       0.43541600       0.17570600       0.36035100 </v>
   <v>       0.86508800       0.88188100       0.82773200 </v>
   <v>       0.82592000       0.01676710       0.26012600 </v>
   <v>       0.59166600       0.24765600       0.92559500 </v>
   <v>       0.00231000       0.85180900       0.20902900 </v>
   <v>       0.89458000       0.25839000       0.66060500 </v>
   <v>       0.81322200       0.26759500       0.87486200 </v>
   <v>       0.58046700       0.75019400       0.49997600 </v>
   <v>       0.02853440       0.96499600       0.01221000 </v>
   <v>       0.12126100       0.42396200       0.25626600 </v>
   <v>       0.75435300       0.30865300       0.09247370 </v>
   <v>       0.15817300       0.77212700       0.98825100 </v>
   <v>       0.11456200       0.17756400       0.00059848 </v>
   <v>       0.45054300       0.93627200       0.52573200 </v>
   <v>       0.20270400       0.15367700       0.78009500 </v>
   <v>       0.98666200       0.35151900       0.08566010 </v>
   <v>       0.93309400       0.73710800       0.01026820 </v>
   <v>       0.84590300       0.52226600       0.07233370 </v>
   <v>       0.96089100       0.09936090       0.83425900 </v>
   <v>       0.56371600       0.00228916       0.71387300 </v>
   <v>       0.41128700       0.79058900       0.31389200 </v>
   <v>       0.55238500       0.61679400       0.31963000 </v>
   <v>       0.46478000       0.79137100       0.71987000 </v>
   <v>       0.05971690       0.08545560       0.61381900 </v>
   <v>       0.86589800       0.11966600       0.46588000 </v>
   <v>       0.46159900       0.29176800       0.54208900 </v>
   <v>       0.47329400       0.03519130       0.94038100 </v>
   <v>       0.10219900       0.92356100       0.78913300 </v>
   <v>       0.37900900       0.81969300       0.94666500 </v>
   <v>       0.08548150       0.70302400       0.58592300 </v>
   <v>       0.12802300       0.17265500       0.39219000 </v>
   <v>       0.25994800       0.23306400       0.20686100 </v>
   <v>       0.32687200       0.96755900       0.74986700 </v>
   <v>       0.45332300       0.50637200       0.52443400 </v>
   <v>       0.68354500       0.19710400       0.29113900 </v>
   <v>       0.14532900       0.76935500       0.35939000 </v>
   <v>       0.35148600       0.21131300       0.97978800 </v>
   <v>       0.34066700       0.72241600       0.53189700 </v>
   <v>       0.23846400       0.76029600       0.76769400 </v>
   <v>       0.78520800       0.89868200       0.05954840 </v>
   <v>       0.36424000       0.57062900       0.72216800 </v>
   <v>       0.37605200       0.05693750       0.15020400 </v>
   <v>       0.29592200       0.59773300       0.94102300 </v>
   <v>       0.62217300       0.48455400       0.14058500 </v>
   <v>       0.51904700       0.25969800       0.14446500 </v>
   <v>       0.99361900       0.47146400       0.64095300 </v>
   <v>       0.84967100       0.64398400       0.59856100 </v>
   <v>       0.11097500       0.05901050       0.20802800 </v>
   <v>       0.21843900       0.53220000       0.56092500 </v>
   <v>       0.72889600       0.30296100       0.49899800 </v>
   <v>       0.00622000       0.63164100       0.21546200 </v>
   <v>       0.77871900       0.66625000       0.82592900 </v>
   <v>       0.65863000       0.21589000       0.70347300 </v>
   <v>       0.27490100       0.98294400       0.36542000 </v>
   <v>       0.06351760       0.54187400       0.99260100 </v>
   <v>       0.97664000       0.33110200       0.45587500 </v>
   <v>       0.56595600       0.38538600       0.35559400 </v>
   <v>       0.63984800       0.06531580       0.11684700 </v>
   <v>       0.22914300       0.38946700       0.03049280 </v>
   <v>       0.29132800       0.36603700       0.81012700 </v>
   <v>       0.16163300       0.30232200       0.61356900 </v>
   <v>       0.45697200       0.42853700       0.98237700 </v>
   <v>       0.25909300       0.86266200       0.16622900 </v>
   <v>       0.89606700       0.47979300       0.85346300 </v>
   <v>       0.30619800       0.12009200       0.56363500 </v>
   <v>       0.24806300       0.99727200       0.95939300 </v>
   <v>       0.60752500       0.60567600       0.66821500 </v>
   <v>       0.52006900       0.39042900       0.75251100 </v>
   <v>       0.71887000       0.05017040       0.90418600 </v>
   <v>       0.42546400       0.18676700       0.75282700 </v>
   <v>       0.44325600       0.65512200       0.10215000 </v>
   <v>       0.81352400       0.38044200       0.29689300 </v>
   <v>       0.78365400       0.60702700       0.27301400 </v>
   <v>       0.28235800       0.35167100       0.41519600 </v>
   <v>       0.54544500       0.98638300       0.31111700 </v>
   <v>       0.70354200       0.81199200       0.25070100 </v>
   <v>       0.87438600       0.11839100       0.05747750 </v>
   <v>       0.21499500       0.61546400       0.14880000 </v>
  </varray>
 </structure>
</modeling>
