unknown system                          
           1
    10.211495    0.000000    0.000000
     0.000000   10.211495    0.000000
     0.000000    0.000000   10.211495
   Si
 100
Direct configuration=     1
   0.31029300  0.58853300  0.36053600
   0.61485700  0.10235400  0.50589600
   0.14390000  0.54613300  0.78271100
   0.71268800  0.52310400  0.47767500
   0.61932100  0.84991400  0.88556300
   0.00770000  0.71024400  0.79769500
   0.52844500  0.63620200  0.87863500
   0.66956100  0.46330400  0.91623800
   0.69392000  0.69548500  0.04403030
   0.03478300  0.55100400  0.42943600
   0.93355800  0.20547500  0.25849700
   0.38451500  0.44584900  0.20465500
   0.89088500  0.74160900  0.40691000
   0.52145100  0.85326800  0.11508000
   0.79755500  0.04586070  0.66782700
   0.04642140  0.31905900  0.84310300
   0.20414400  0.89766900  0.57076500
   0.02403290  0.96180500  0.40557400
   0.73631500  0.90916300  0.44508000
   0.72060000  0.83053600  0.66671300
   0.74602400  0.42924300  0.69715900
   0.93640600  0.87317300  0.60035200
   0.43541600  0.17570600  0.36035100
   0.86508800  0.88188100  0.82773200
   0.82592000  0.01676710  0.26012600
   0.59166600  0.24765600  0.92559500
   0.00231000  0.85180900  0.20902900
   0.89458000  0.25839000  0.66060500
   0.81322200  0.26759500  0.87486200
   0.58046700  0.75019400  0.49997600
   0.02853440  0.96499600  0.01221000
   0.12126100  0.42396200  0.25626600
   0.75435300  0.30865300  0.09247370
   0.15817300  0.77212700  0.98825100
   0.11456200  0.17756400  0.00059848
   0.45054300  0.93627200  0.52573200
   0.20270400  0.15367700  0.78009500
   0.98666200  0.35151900  0.08566010
   0.93309400  0.73710800  0.01026820
   0.84590300  0.52226600  0.07233370
   0.96089100  0.09936090  0.83425900
   0.56371600  0.00228916  0.71387300
   0.41128700  0.79058900  0.31389200
   0.55238500  0.61679400  0.31963000
   0.46478000  0.79137100  0.71987000
   0.05971690  0.08545560  0.61381900
   0.86589800  0.11966600  0.46588000
   0.46159900  0.29176800  0.54208900
   0.47329400  0.03519130  0.94038100
   0.10219900  0.92356100  0.78913300
   0.37900900  0.81969300  0.94666500
   0.08548150  0.70302400  0.58592300
   0.12802300  0.17265500  0.39219000
   0.25994800  0.23306400  0.20686100
   0.32687200  0.96755900  0.74986700
   0.45332300  0.50637200  0.52443400
   0.68354500  0.19710400  0.29113900
   0.14532900  0.76935500  0.35939000
   0.35148600  0.21131300  0.97978800
   0.34066700  0.72241600  0.53189700
   0.23846400  0.76029600  0.76769400
   0.78520800  0.89868200  0.05954840
   0.36424000  0.57062900  0.72216800
   0.37605200  0.05693750  0.15020400
   0.29592200  0.59773300  0.94102300
   0.62217300  0.48455400  0.14058500
   0.51904700  0.25969800  0.14446500
   0.99361900  0.47146400  0.64095300
   0.84967100  0.64398400  0.59856100
   0.11097500  0.05901050  0.20802800
   0.21843900  0.53220000  0.56092500
   0.72889600  0.30296100  0.49899800
   0.00622000  0.63164100  0.21546200
   0.77871900  0.66625000  0.82592900
   0.65863000  0.21589000  0.70347300
   0.27490100  0.98294400  0.36542000
   0.06351760  0.54187400  0.99260100
   0.97664000  0.33110200  0.45587500
   0.56595600  0.38538600  0.35559400
   0.63984800  0.06531580  0.11684700
   0.22914300  0.38946700  0.03049280
   0.29132800  0.36603700  0.81012700
   0.16163300  0.30232200  0.61356900
   0.45697200  0.42853700  0.98237700
   0.25909300  0.86266200  0.16622900
   0.89606700  0.47979300  0.85346300
   0.30619800  0.12009200  0.56363500
   0.24806300  0.99727200  0.95939300
   0.60752500  0.60567600  0.66821500
   0.52006900  0.39042900  0.75251100
   0.71887000  0.05017040  0.90418600
   0.42546400  0.18676700  0.75282700
   0.44325600  0.65512200  0.10215000
   0.81352400  0.38044200  0.29689300
   0.78365400  0.60702700  0.27301400
   0.28235800  0.35167100  0.41519600
   0.54544500  0.98638300  0.31111700
   0.70354200  0.81199200  0.25070100
   0.87438600  0.11839100  0.05747750
   0.21499500  0.61546400  0.14880000
