 100 100   0   0
  0.1064800E+02  0.1021150E-08  0.1021150E-08  0.1021150E-08  0.3000000E-14
   2000.00000000000     
  CAR 
 unknown system                          
     21.44766478     -4.30461647  301     14.65110448      1.00000000
     -4.305  0.0000E+00  0.0000E+00  0.0000E+00  0.0000E+00
     -4.219  0.0000E+00  0.0000E+00  0.0000E+00  0.0000E+00
     -4.133  0.0000E+00  0.0000E+00  0.0000E+00  0.0000E+00
     -4.047  0.0000E+00  0.0000E+00  0.0000E+00  0.0000E+00
     -3.961  0.0000E+00  0.0000E+00  0.0000E+00  0.0000E+00
     -3.875  0.0000E+00  0.0000E+00  0.0000E+00  0.0000E+00
     -3.790  0.0000E+00  0.0000E+00  0.0000E+00  0.0000E+00
     -3.704  0.0000E+00  0.0000E+00  0.0000E+00  0.0000E+00
     -3.618  0.0000E+00  0.0000E+00  0.0000E+00  0.0000E+00
     -3.532  0.0000E+00  0.0000E+00  0.0000E+00  0.0000E+00
     -3.446  0.0000E+00  0.0000E+00  0.0000E+00  0.0000E+00
     -3.360  0.8006E-09  0.8002E-09  0.6884E-10  0.6881E-10
     -3.275  0.3889E-03  0.3886E-03  0.3348E-04  0.3345E-04
     -3.189  0.7005E+00  0.7002E+00  0.6040E-01  0.6037E-01
     -3.103  0.8723E+01  0.8723E+01  0.8123E+00  0.8123E+00
     -3.017  0.2172E+01  0.2173E+01  0.9996E+00  0.9996E+00
     -2.931  0.5173E-02  0.5176E-02  0.1000E+01  0.1000E+01
     -2.845  0.5023E-07  0.5026E-07  0.1000E+01  0.1000E+01
     -2.759  0.1964E-14  0.1964E-14  0.1000E+01  0.1000E+01
     -2.674  0.0000E+00  0.0000E+00  0.1000E+01  0.1000E+01
     -2.588  0.0000E+00  0.0000E+00  0.1000E+01  0.1000E+01
     -2.502  0.0000E+00  0.0000E+00  0.1000E+01  0.1000E+01
     -2.416  0.4224E-12  0.4224E-12  0.1000E+01  0.1000E+01
     -2.330  0.7306E-06  0.7306E-06  0.1000E+01  0.1000E+01
     -2.244  0.4950E-02  0.4950E-02  0.1000E+01  0.1000E+01
     -2.159  0.3699E+00  0.3699E+00  0.1032E+01  0.1032E+01
     -2.073  0.3456E+01  0.3456E+01  0.1330E+01  0.1330E+01
     -1.987  0.8192E+01  0.8191E+01  0.2036E+01  0.2036E+01
     -1.901  0.7243E+01  0.7244E+01  0.2659E+01  0.2659E+01
     -1.815  0.1002E+02  0.1002E+02  0.3523E+01  0.3523E+01
     -1.729  0.1134E+02  0.1134E+02  0.4500E+01  0.4500E+01
     -1.644  0.8134E+01  0.8135E+01  0.5200E+01  0.5200E+01
     -1.558  0.7306E+01  0.7306E+01  0.5828E+01  0.5828E+01
     -1.472  0.6483E+01  0.6484E+01  0.6386E+01  0.6386E+01
     -1.386  0.4231E+01  0.4231E+01  0.6750E+01  0.6750E+01
     -1.300  0.1107E+01  0.1106E+01  0.6847E+01  0.6847E+01
     -1.214  0.6333E+00  0.6337E+00  0.6903E+01  0.6903E+01
     -1.129  0.2420E+00  0.2425E+00  0.6924E+01  0.6924E+01
     -1.043  0.1324E+00  0.1322E+00  0.6936E+01  0.6936E+01
     -0.957  0.7135E+00  0.7132E+00  0.6998E+01  0.6998E+01
     -0.871  0.2034E+01  0.2034E+01  0.7174E+01  0.7174E+01
     -0.785  0.4648E+01  0.4649E+01  0.7575E+01  0.7575E+01
     -0.699  0.6802E+01  0.6802E+01  0.8159E+01  0.8159E+01
     -0.613  0.1145E+02  0.1145E+02  0.9146E+01  0.9146E+01
     -0.528  0.1238E+02  0.1238E+02  0.1021E+02  0.1021E+02
     -0.442  0.1327E+02  0.1327E+02  0.1135E+02  0.1135E+02
     -0.356  0.1399E+02  0.1399E+02  0.1256E+02  0.1256E+02
     -0.270  0.1318E+02  0.1318E+02  0.1369E+02  0.1369E+02
     -0.184  0.1256E+02  0.1256E+02  0.1478E+02  0.1478E+02
     -0.098  0.1221E+02  0.1221E+02  0.1583E+02  0.1583E+02
     -0.013  0.1100E+02  0.1100E+02  0.1678E+02  0.1678E+02
      0.073  0.8695E+01  0.8694E+01  0.1752E+02  0.1752E+02
      0.159  0.6276E+01  0.6275E+01  0.1806E+02  0.1806E+02
      0.245  0.4448E+01  0.4448E+01  0.1845E+02  0.1845E+02
      0.331  0.1823E+01  0.1823E+01  0.1861E+02  0.1861E+02
      0.417  0.8259E+00  0.8261E+00  0.1868E+02  0.1868E+02
      0.502  0.5804E+00  0.5803E+00  0.1873E+02  0.1873E+02
      0.588  0.1230E+01  0.1230E+01  0.1884E+02  0.1884E+02
      0.674  0.3765E+01  0.3765E+01  0.1916E+02  0.1916E+02
      0.760  0.7064E+01  0.7064E+01  0.1977E+02  0.1977E+02
      0.846  0.8537E+01  0.8538E+01  0.2051E+02  0.2051E+02
      0.932  0.1028E+02  0.1028E+02  0.2139E+02  0.2139E+02
      1.018  0.1065E+02  0.1065E+02  0.2231E+02  0.2231E+02
      1.103  0.1065E+02  0.1065E+02  0.2322E+02  0.2322E+02
      1.189  0.9864E+01  0.9865E+01  0.2407E+02  0.2407E+02
      1.275  0.8787E+01  0.8786E+01  0.2483E+02  0.2483E+02
      1.361  0.7800E+01  0.7801E+01  0.2550E+02  0.2550E+02
      1.447  0.6637E+01  0.6637E+01  0.2607E+02  0.2607E+02
      1.533  0.3662E+01  0.3661E+01  0.2639E+02  0.2639E+02
      1.618  0.1868E+01  0.1868E+01  0.2655E+02  0.2655E+02
      1.704  0.1010E+01  0.1010E+01  0.2664E+02  0.2664E+02
      1.790  0.6382E+00  0.6386E+00  0.2669E+02  0.2669E+02
      1.876  0.7253E+00  0.7255E+00  0.2676E+02  0.2676E+02
      1.962  0.1981E+01  0.1980E+01  0.2693E+02  0.2693E+02
      2.048  0.4445E+01  0.4444E+01  0.2731E+02  0.2731E+02
      2.133  0.6638E+01  0.6638E+01  0.2789E+02  0.2789E+02
      2.219  0.9532E+01  0.9532E+01  0.2871E+02  0.2871E+02
      2.305  0.9611E+01  0.9610E+01  0.2954E+02  0.2954E+02
      2.391  0.9888E+01  0.9889E+01  0.3039E+02  0.3039E+02
      2.477  0.8732E+01  0.8732E+01  0.3114E+02  0.3114E+02
      2.563  0.6325E+01  0.6325E+01  0.3169E+02  0.3169E+02
      2.648  0.5641E+01  0.5640E+01  0.3218E+02  0.3218E+02
      2.734  0.4281E+01  0.4281E+01  0.3254E+02  0.3254E+02
      2.820  0.3375E+01  0.3376E+01  0.3284E+02  0.3284E+02
      2.906  0.1291E+01  0.1291E+01  0.3295E+02  0.3295E+02
      2.992  0.2292E+01  0.2292E+01  0.3315E+02  0.3315E+02
      3.078  0.5558E+01  0.5558E+01  0.3363E+02  0.3363E+02
      3.164  0.1054E+02  0.1054E+02  0.3453E+02  0.3453E+02
      3.249  0.1494E+02  0.1494E+02  0.3582E+02  0.3582E+02
      3.335  0.1673E+02  0.1673E+02  0.3726E+02  0.3726E+02
      3.421  0.1733E+02  0.1733E+02  0.3875E+02  0.3875E+02
      3.507  0.2178E+02  0.2178E+02  0.4063E+02  0.4063E+02
      3.593  0.2082E+02  0.2082E+02  0.4242E+02  0.4242E+02
      3.679  0.1981E+02  0.1981E+02  0.4413E+02  0.4413E+02
      3.764  0.2076E+02  0.2076E+02  0.4592E+02  0.4592E+02
      3.850  0.2075E+02  0.2075E+02  0.4770E+02  0.4770E+02
      3.936  0.1828E+02  0.1828E+02  0.4928E+02  0.4928E+02
      4.022  0.1657E+02  0.1657E+02  0.5071E+02  0.5070E+02
      4.108  0.1808E+02  0.1808E+02  0.5226E+02  0.5226E+02
      4.194  0.1427E+02  0.1427E+02  0.5349E+02  0.5349E+02
      4.279  0.1148E+02  0.1148E+02  0.5448E+02  0.5448E+02
      4.365  0.1091E+02  0.1091E+02  0.5543E+02  0.5543E+02
      4.451  0.9119E+01  0.9118E+01  0.5621E+02  0.5621E+02
      4.537  0.7022E+01  0.7023E+01  0.5682E+02  0.5682E+02
      4.623  0.1060E+02  0.1060E+02  0.5773E+02  0.5773E+02
      4.709  0.1524E+02  0.1524E+02  0.5905E+02  0.5905E+02
      4.795  0.1526E+02  0.1526E+02  0.6036E+02  0.6036E+02
      4.880  0.2002E+02  0.2002E+02  0.6208E+02  0.6208E+02
      4.966  0.1938E+02  0.1938E+02  0.6375E+02  0.6375E+02
      5.052  0.1932E+02  0.1932E+02  0.6542E+02  0.6542E+02
      5.138  0.1791E+02  0.1791E+02  0.6696E+02  0.6696E+02
      5.224  0.2047E+02  0.2047E+02  0.6872E+02  0.6872E+02
      5.310  0.2156E+02  0.2156E+02  0.7058E+02  0.7058E+02
      5.395  0.1870E+02  0.1870E+02  0.7219E+02  0.7219E+02
      5.481  0.1627E+02  0.1627E+02  0.7359E+02  0.7359E+02
      5.567  0.1444E+02  0.1444E+02  0.7483E+02  0.7483E+02
      5.653  0.1210E+02  0.1210E+02  0.7588E+02  0.7588E+02
      5.739  0.1137E+02  0.1137E+02  0.7685E+02  0.7685E+02
      5.825  0.9110E+01  0.9109E+01  0.7764E+02  0.7764E+02
      5.910  0.7885E+01  0.7885E+01  0.7832E+02  0.7832E+02
      5.996  0.6586E+01  0.6586E+01  0.7889E+02  0.7889E+02
      6.082  0.7168E+01  0.7167E+01  0.7951E+02  0.7951E+02
      6.168  0.3914E+01  0.3914E+01  0.7984E+02  0.7984E+02
      6.254  0.1846E+01  0.1846E+01  0.8001E+02  0.8001E+02
      6.340  0.1489E+01  0.1490E+01  0.8014E+02  0.8014E+02
      6.426  0.1256E+01  0.1256E+01  0.8025E+02  0.8025E+02
      6.511  0.1371E+01  0.1371E+01  0.8037E+02  0.8037E+02
      6.597  0.8608E+00  0.8607E+00  0.8044E+02  0.8044E+02
      6.683  0.9504E+00  0.9499E+00  0.8053E+02  0.8053E+02
      6.769  0.1039E+01  0.1039E+01  0.8062E+02  0.8062E+02
      6.855  0.1182E+01  0.1182E+01  0.8072E+02  0.8072E+02
      6.941  0.1746E+01  0.1746E+01  0.8088E+02  0.8088E+02
      7.026  0.1773E+01  0.1772E+01  0.8103E+02  0.8103E+02
      7.112  0.4079E+01  0.4079E+01  0.8138E+02  0.8138E+02
      7.198  0.6676E+01  0.6675E+01  0.8196E+02  0.8196E+02
      7.284  0.1217E+02  0.1217E+02  0.8301E+02  0.8301E+02
      7.370  0.1336E+02  0.1336E+02  0.8416E+02  0.8416E+02
      7.456  0.1419E+02  0.1419E+02  0.8538E+02  0.8538E+02
      7.541  0.1350E+02  0.1350E+02  0.8654E+02  0.8654E+02
      7.627  0.1349E+02  0.1349E+02  0.8770E+02  0.8770E+02
      7.713  0.1463E+02  0.1463E+02  0.8896E+02  0.8896E+02
      7.799  0.1415E+02  0.1415E+02  0.9018E+02  0.9018E+02
      7.885  0.1146E+02  0.1146E+02  0.9117E+02  0.9117E+02
      7.971  0.8908E+01  0.8908E+01  0.9194E+02  0.9194E+02
      8.056  0.6901E+01  0.6902E+01  0.9254E+02  0.9254E+02
      8.142  0.7453E+01  0.7453E+01  0.9318E+02  0.9318E+02
      8.228  0.1176E+02  0.1176E+02  0.9419E+02  0.9419E+02
      8.314  0.1409E+02  0.1409E+02  0.9541E+02  0.9541E+02
      8.400  0.1561E+02  0.1561E+02  0.9675E+02  0.9675E+02
      8.486  0.1590E+02  0.1590E+02  0.9812E+02  0.9812E+02
      8.572  0.1565E+02  0.1565E+02  0.9947E+02  0.9947E+02
      8.657  0.1759E+02  0.1759E+02  0.1010E+03  0.1010E+03
      8.743  0.1972E+02  0.1972E+02  0.1027E+03  0.1027E+03
      8.829  0.1992E+02  0.1992E+02  0.1044E+03  0.1044E+03
      8.915  0.2077E+02  0.2078E+02  0.1062E+03  0.1062E+03
      9.001  0.2051E+02  0.2051E+02  0.1080E+03  0.1080E+03
      9.087  0.2028E+02  0.2029E+02  0.1097E+03  0.1097E+03
      9.172  0.2121E+02  0.2121E+02  0.1115E+03  0.1115E+03
      9.258  0.2039E+02  0.2039E+02  0.1133E+03  0.1133E+03
      9.344  0.1938E+02  0.1938E+02  0.1150E+03  0.1150E+03
      9.430  0.1815E+02  0.1815E+02  0.1165E+03  0.1165E+03
      9.516  0.1609E+02  0.1609E+02  0.1179E+03  0.1179E+03
      9.602  0.1588E+02  0.1588E+02  0.1193E+03  0.1193E+03
      9.687  0.1539E+02  0.1539E+02  0.1206E+03  0.1206E+03
      9.773  0.1565E+02  0.1565E+02  0.1220E+03  0.1220E+03
      9.859  0.1681E+02  0.1681E+02  0.1234E+03  0.1234E+03
      9.945  0.1690E+02  0.1690E+02  0.1249E+03  0.1249E+03
     10.031  0.1732E+02  0.1732E+02  0.1264E+03  0.1264E+03
     10.117  0.1993E+02  0.1993E+02  0.1281E+03  0.1281E+03
     10.203  0.2073E+02  0.2073E+02  0.1299E+03  0.1299E+03
     10.288  0.2289E+02  0.2289E+02  0.1318E+03  0.1318E+03
     10.374  0.2014E+02  0.2014E+02  0.1336E+03  0.1336E+03
     10.460  0.2215E+02  0.2215E+02  0.1355E+03  0.1355E+03
     10.546  0.2150E+02  0.2150E+02  0.1373E+03  0.1373E+03
     10.632  0.2016E+02  0.2016E+02  0.1391E+03  0.1391E+03
     10.718  0.1886E+02  0.1886E+02  0.1407E+03  0.1407E+03
     10.803  0.1900E+02  0.1900E+02  0.1423E+03  0.1423E+03
     10.889  0.1773E+02  0.1773E+02  0.1439E+03  0.1439E+03
     10.975  0.1459E+02  0.1459E+02  0.1451E+03  0.1451E+03
     11.061  0.1318E+02  0.1318E+02  0.1463E+03  0.1463E+03
     11.147  0.1399E+02  0.1399E+02  0.1475E+03  0.1475E+03
     11.233  0.1333E+02  0.1333E+02  0.1486E+03  0.1486E+03
     11.318  0.1491E+02  0.1491E+02  0.1499E+03  0.1499E+03
     11.404  0.1877E+02  0.1877E+02  0.1515E+03  0.1515E+03
     11.490  0.1895E+02  0.1895E+02  0.1532E+03  0.1532E+03
     11.576  0.1701E+02  0.1701E+02  0.1546E+03  0.1546E+03
     11.662  0.1832E+02  0.1832E+02  0.1562E+03  0.1562E+03
     11.748  0.1925E+02  0.1925E+02  0.1579E+03  0.1579E+03
     11.833  0.2033E+02  0.2033E+02  0.1596E+03  0.1596E+03
     11.919  0.1870E+02  0.1870E+02  0.1612E+03  0.1612E+03
     12.005  0.1718E+02  0.1718E+02  0.1627E+03  0.1627E+03
     12.091  0.1703E+02  0.1703E+02  0.1642E+03  0.1642E+03
     12.177  0.1892E+02  0.1892E+02  0.1658E+03  0.1658E+03
     12.263  0.1523E+02  0.1523E+02  0.1671E+03  0.1671E+03
     12.349  0.1350E+02  0.1350E+02  0.1683E+03  0.1683E+03
     12.434  0.1183E+02  0.1182E+02  0.1693E+03  0.1693E+03
     12.520  0.7850E+01  0.7850E+01  0.1700E+03  0.1700E+03
     12.606  0.7593E+01  0.7593E+01  0.1706E+03  0.1706E+03
     12.692  0.8038E+01  0.8039E+01  0.1713E+03  0.1713E+03
     12.778  0.7161E+01  0.7161E+01  0.1719E+03  0.1719E+03
     12.864  0.1089E+02  0.1089E+02  0.1729E+03  0.1729E+03
     12.949  0.1212E+02  0.1212E+02  0.1739E+03  0.1739E+03
     13.035  0.1148E+02  0.1148E+02  0.1749E+03  0.1749E+03
     13.121  0.1327E+02  0.1327E+02  0.1761E+03  0.1761E+03
     13.207  0.1253E+02  0.1253E+02  0.1771E+03  0.1771E+03
     13.293  0.1162E+02  0.1162E+02  0.1781E+03  0.1781E+03
     13.379  0.1156E+02  0.1156E+02  0.1791E+03  0.1791E+03
     13.464  0.1045E+02  0.1045E+02  0.1800E+03  0.1800E+03
     13.550  0.1104E+02  0.1104E+02  0.1810E+03  0.1810E+03
     13.636  0.1379E+02  0.1379E+02  0.1822E+03  0.1822E+03
     13.722  0.1633E+02  0.1633E+02  0.1836E+03  0.1836E+03
     13.808  0.1601E+02  0.1601E+02  0.1850E+03  0.1850E+03
     13.894  0.1531E+02  0.1531E+02  0.1863E+03  0.1863E+03
     13.980  0.1591E+02  0.1591E+02  0.1877E+03  0.1877E+03
     14.065  0.1717E+02  0.1717E+02  0.1891E+03  0.1891E+03
     14.151  0.1603E+02  0.1603E+02  0.1905E+03  0.1905E+03
     14.237  0.1782E+02  0.1782E+02  0.1921E+03  0.1921E+03
     14.323  0.1810E+02  0.1810E+02  0.1936E+03  0.1936E+03
     14.409  0.1731E+02  0.1731E+02  0.1951E+03  0.1951E+03
     14.495  0.1716E+02  0.1716E+02  0.1966E+03  0.1966E+03
     14.580  0.1855E+02  0.1855E+02  0.1982E+03  0.1982E+03
     14.666  0.1983E+02  0.1983E+02  0.1999E+03  0.1999E+03
     14.752  0.1815E+02  0.1815E+02  0.2015E+03  0.2015E+03
     14.838  0.1657E+02  0.1657E+02  0.2029E+03  0.2029E+03
     14.924  0.1893E+02  0.1893E+02  0.2045E+03  0.2045E+03
     15.010  0.2138E+02  0.2139E+02  0.2064E+03  0.2064E+03
     15.095  0.2157E+02  0.2156E+02  0.2082E+03  0.2082E+03
     15.181  0.2144E+02  0.2144E+02  0.2101E+03  0.2101E+03
     15.267  0.2268E+02  0.2268E+02  0.2120E+03  0.2120E+03
     15.353  0.2321E+02  0.2321E+02  0.2140E+03  0.2140E+03
     15.439  0.2350E+02  0.2350E+02  0.2160E+03  0.2160E+03
     15.525  0.2216E+02  0.2216E+02  0.2180E+03  0.2180E+03
     15.610  0.2186E+02  0.2186E+02  0.2198E+03  0.2198E+03
     15.696  0.2321E+02  0.2321E+02  0.2218E+03  0.2218E+03
     15.782  0.2332E+02  0.2332E+02  0.2238E+03  0.2238E+03
     15.868  0.2327E+02  0.2327E+02  0.2258E+03  0.2258E+03
     15.954  0.2300E+02  0.2300E+02  0.2278E+03  0.2278E+03
     16.040  0.2141E+02  0.2141E+02  0.2297E+03  0.2297E+03
     16.126  0.2203E+02  0.2203E+02  0.2316E+03  0.2316E+03
     16.211  0.2221E+02  0.2221E+02  0.2335E+03  0.2335E+03
     16.297  0.2056E+02  0.2056E+02  0.2353E+03  0.2353E+03
     16.383  0.1957E+02  0.1957E+02  0.2370E+03  0.2370E+03
     16.469  0.1978E+02  0.1978E+02  0.2387E+03  0.2387E+03
     16.555  0.1899E+02  0.1899E+02  0.2403E+03  0.2403E+03
     16.641  0.1885E+02  0.1885E+02  0.2419E+03  0.2419E+03
     16.726  0.1823E+02  0.1823E+02  0.2435E+03  0.2435E+03
     16.812  0.1726E+02  0.1725E+02  0.2450E+03  0.2450E+03
     16.898  0.1694E+02  0.1694E+02  0.2464E+03  0.2464E+03
     16.984  0.1401E+02  0.1401E+02  0.2476E+03  0.2476E+03
     17.070  0.1156E+02  0.1156E+02  0.2486E+03  0.2486E+03
     17.156  0.1000E+02  0.1000E+02  0.2495E+03  0.2495E+03
     17.241  0.6337E+01  0.6337E+01  0.2501E+03  0.2501E+03
     17.327  0.4827E+01  0.4827E+01  0.2505E+03  0.2505E+03
     17.413  0.4481E+01  0.4482E+01  0.2509E+03  0.2509E+03
     17.499  0.4113E+01  0.4113E+01  0.2512E+03  0.2512E+03
     17.585  0.4446E+01  0.4445E+01  0.2516E+03  0.2516E+03
     17.671  0.5966E+01  0.5965E+01  0.2521E+03  0.2521E+03
     17.757  0.7701E+01  0.7702E+01  0.2528E+03  0.2528E+03
     17.842  0.1100E+02  0.1100E+02  0.2538E+03  0.2538E+03
     17.928  0.1371E+02  0.1371E+02  0.2549E+03  0.2549E+03
     18.014  0.1308E+02  0.1308E+02  0.2561E+03  0.2561E+03
     18.100  0.1141E+02  0.1141E+02  0.2570E+03  0.2570E+03
     18.186  0.1107E+02  0.1107E+02  0.2580E+03  0.2580E+03
     18.272  0.1146E+02  0.1146E+02  0.2590E+03  0.2590E+03
     18.357  0.1318E+02  0.1318E+02  0.2601E+03  0.2601E+03
     18.443  0.1577E+02  0.1577E+02  0.2615E+03  0.2615E+03
     18.529  0.1795E+02  0.1795E+02  0.2630E+03  0.2630E+03
     18.615  0.1974E+02  0.1974E+02  0.2647E+03  0.2647E+03
     18.701  0.2139E+02  0.2139E+02  0.2666E+03  0.2666E+03
     18.787  0.2198E+02  0.2198E+02  0.2685E+03  0.2685E+03
     18.872  0.2252E+02  0.2251E+02  0.2704E+03  0.2704E+03
     18.958  0.2398E+02  0.2397E+02  0.2725E+03  0.2725E+03
     19.044  0.2365E+02  0.2365E+02  0.2745E+03  0.2745E+03
     19.130  0.2530E+02  0.2531E+02  0.2767E+03  0.2767E+03
     19.216  0.2580E+02  0.2578E+02  0.2789E+03  0.2789E+03
     19.302  0.2486E+02  0.2485E+02  0.2811E+03  0.2811E+03
     19.387  0.2541E+02  0.2541E+02  0.2833E+03  0.2832E+03
     19.473  0.2397E+02  0.2396E+02  0.2853E+03  0.2853E+03
     19.559  0.2353E+02  0.2349E+02  0.2873E+03  0.2873E+03
     19.645  0.2425E+02  0.2416E+02  0.2894E+03  0.2894E+03
     19.731  0.2378E+02  0.2374E+02  0.2915E+03  0.2915E+03
     19.817  0.2437E+02  0.2430E+02  0.2936E+03  0.2936E+03
     19.903  0.2395E+02  0.2400E+02  0.2956E+03  0.2956E+03
     19.988  0.2150E+02  0.2155E+02  0.2975E+03  0.2975E+03
     20.074  0.2190E+02  0.2194E+02  0.2994E+03  0.2994E+03
     20.160  0.2309E+02  0.2310E+02  0.3014E+03  0.3014E+03
     20.246  0.1864E+02  0.1908E+02  0.3030E+03  0.3030E+03
     20.332  0.1132E+02  0.1109E+02  0.3039E+03  0.3040E+03
     20.418  0.6359E+00  0.5522E+00  0.3040E+03  0.3040E+03
     20.503  0.3204E-03  0.2487E-03  0.3040E+03  0.3040E+03
     20.589  0.6346E-09  0.4516E-09  0.3040E+03  0.3040E+03
     20.675  0.0000E+00  0.0000E+00  0.3040E+03  0.3040E+03
     20.761  0.0000E+00  0.0000E+00  0.3040E+03  0.3040E+03
     20.847  0.0000E+00  0.0000E+00  0.3040E+03  0.3040E+03
     20.933  0.0000E+00  0.0000E+00  0.3040E+03  0.3040E+03
     21.018  0.0000E+00  0.0000E+00  0.3040E+03  0.3040E+03
     21.104  0.0000E+00  0.0000E+00  0.3040E+03  0.3040E+03
     21.190  0.0000E+00  0.0000E+00  0.3040E+03  0.3040E+03
     21.276  0.0000E+00  0.0000E+00  0.3040E+03  0.3040E+03
     21.362  0.0000E+00  0.0000E+00  0.3040E+03  0.3040E+03
     21.448  0.0000E+00  0.0000E+00  0.3040E+03  0.3040E+03
     21.47349524     -4.29154120  301     14.66040287      1.00000000
     -4.292  0.0000E+00  0.0000E+00  0.0000E+00  0.0000E+00
     -4.206  0.0000E+00  0.0000E+00  0.0000E+00  0.0000E+00
     -4.120  0.0000E+00  0.0000E+00  0.0000E+00  0.0000E+00
     -4.034  0.0000E+00  0.0000E+00  0.0000E+00  0.0000E+00
     -3.948  0.0000E+00  0.0000E+00  0.0000E+00  0.0000E+00
     -3.862  0.0000E+00  0.0000E+00  0.0000E+00  0.0000E+00
     -3.776  0.0000E+00  0.0000E+00  0.0000E+00  0.0000E+00
     -3.690  0.0000E+00  0.0000E+00  0.0000E+00  0.0000E+00
     -3.604  0.0000E+00  0.0000E+00  0.0000E+00  0.0000E+00
     -3.519  0.0000E+00  0.0000E+00  0.0000E+00  0.0000E+00
     -3.433  0.0000E+00  0.0000E+00  0.0000E+00  0.0000E+00
     -3.347  0.8802E-11  0.8805E-11  0.7560E-12  0.7562E-12
     -3.261  0.4097E-05  0.4098E-05  0.3519E-06  0.3519E-06
     -3.175  0.7107E-02  0.7107E-02  0.6107E-03  0.6107E-03
     -3.089  0.8737E-01  0.8737E-01  0.8115E-02  0.8115E-02
     -3.003  0.2190E-01  0.2190E-01  0.9995E-02  0.9995E-02
     -2.917  0.5384E-04  0.5384E-04  0.1000E-01  0.1000E-01
     -2.832  0.5460E-09  0.5459E-09  0.1000E-01  0.1000E-01
     -2.746  0.2585E-16  0.2585E-16  0.1000E-01  0.1000E-01
     -2.660  0.0000E+00  0.0000E+00  0.1000E-01  0.1000E-01
     -2.574  0.0000E+00  0.0000E+00  0.1000E-01  0.1000E-01
     -2.488  0.0000E+00  0.0000E+00  0.1000E-01  0.1000E-01
     -2.402  0.0000E+00  0.0000E+00  0.1000E-01  0.1000E-01
     -2.316  0.0000E+00  0.0000E+00  0.1000E-01  0.1000E-01
     -2.230  0.4957E-10  0.4957E-10  0.1000E-01  0.1000E-01
     -2.144  0.1226E-04  0.1226E-04  0.1000E-01  0.1000E-01
     -2.059  0.1173E-01  0.1173E-01  0.1101E-01  0.1101E-01
     -1.973  0.9097E-01  0.9097E-01  0.1882E-01  0.1882E-01
     -1.887  0.7014E-01  0.7014E-01  0.2485E-01  0.2485E-01
     -1.801  0.1022E+00  0.1022E+00  0.3362E-01  0.3362E-01
     -1.715  0.1721E+00  0.1721E+00  0.4840E-01  0.4840E-01
     -1.629  0.5075E-01  0.5073E-01  0.5276E-01  0.5276E-01
     -1.543  0.9031E-01  0.9031E-01  0.6052E-01  0.6052E-01
     -1.457  0.9349E-01  0.9349E-01  0.6855E-01  0.6855E-01
     -1.372  0.1690E-01  0.1690E-01  0.7000E-01  0.7000E-01
     -1.286  0.2859E-04  0.2858E-04  0.7000E-01  0.7000E-01
     -1.200  0.1935E-09  0.1934E-09  0.7000E-01  0.7000E-01
     -1.114  0.0000E+00  0.0000E+00  0.7000E-01  0.7000E-01
     -1.028  0.0000E+00  0.0000E+00  0.7000E-01  0.7000E-01
     -0.942  0.1013E-11  0.1014E-11  0.7000E-01  0.7000E-01
     -0.856  0.1014E-05  0.1015E-05  0.7000E-01  0.7000E-01
     -0.770  0.3844E-02  0.3846E-02  0.7033E-01  0.7033E-01
     -0.684  0.1253E+00  0.1253E+00  0.8109E-01  0.8109E-01
     -0.599  0.2020E+00  0.2020E+00  0.9844E-01  0.9844E-01
     -0.513  0.1543E+00  0.1543E+00  0.1117E+00  0.1117E+00
     -0.427  0.1695E+00  0.1695E+00  0.1263E+00  0.1263E+00
     -0.341  0.1336E+00  0.1336E+00  0.1377E+00  0.1377E+00
     -0.255  0.1468E+00  0.1469E+00  0.1503E+00  0.1503E+00
     -0.169  0.1324E+00  0.1324E+00  0.1617E+00  0.1617E+00
     -0.083  0.1257E+00  0.1257E+00  0.1725E+00  0.1725E+00
      0.003  0.8392E-01  0.8391E-01  0.1797E+00  0.1797E+00
      0.089  0.3545E-02  0.3543E-02  0.1800E+00  0.1800E+00
      0.174  0.2713E-01  0.2713E-01  0.1823E+00  0.1823E+00
      0.260  0.8406E-01  0.8405E-01  0.1896E+00  0.1896E+00
      0.346  0.5157E-02  0.5156E-02  0.1900E+00  0.1900E+00
      0.432  0.2095E-05  0.2094E-05  0.1900E+00  0.1900E+00
      0.518  0.3182E-09  0.3186E-09  0.1900E+00  0.1900E+00
      0.604  0.3855E-04  0.3857E-04  0.1900E+00  0.1900E+00
      0.690  0.1913E-01  0.1914E-01  0.1916E+00  0.1916E+00
      0.776  0.9304E-01  0.9304E-01  0.1996E+00  0.1996E+00
      0.861  0.1420E+00  0.1419E+00  0.2118E+00  0.2118E+00
      0.947  0.1131E+00  0.1131E+00  0.2215E+00  0.2215E+00
      1.033  0.1069E+00  0.1069E+00  0.2307E+00  0.2307E+00
      1.119  0.1564E+00  0.1565E+00  0.2442E+00  0.2442E+00
      1.205  0.6738E-01  0.6737E-01  0.2499E+00  0.2499E+00
      1.291  0.3606E-01  0.3609E-01  0.2530E+00  0.2530E+00
      1.377  0.9769E-01  0.9767E-01  0.2614E+00  0.2614E+00
      1.463  0.9167E-01  0.9166E-01  0.2693E+00  0.2693E+00
      1.549  0.8115E-02  0.8114E-02  0.2700E+00  0.2700E+00
      1.634  0.5442E-05  0.5440E-05  0.2700E+00  0.2700E+00
      1.720  0.1372E-10  0.1371E-10  0.2700E+00  0.2700E+00
      1.806  0.0000E+00  0.0000E+00  0.2700E+00  0.2700E+00
      1.892  0.1868E-14  0.1868E-14  0.2700E+00  0.2700E+00
      1.978  0.1434E-07  0.1433E-07  0.2700E+00  0.2700E+00
      2.064  0.3672E-03  0.3671E-03  0.2700E+00  0.2700E+00
      2.150  0.4404E-01  0.4404E-01  0.2738E+00  0.2738E+00
      2.236  0.8382E-01  0.8383E-01  0.2810E+00  0.2810E+00
      2.321  0.1557E+00  0.1557E+00  0.2944E+00  0.2944E+00
      2.407  0.1487E+00  0.1487E+00  0.3071E+00  0.3071E+00
      2.493  0.1379E+00  0.1379E+00  0.3190E+00  0.3190E+00
      2.579  0.7877E-01  0.7874E-01  0.3258E+00  0.3258E+00
      2.665  0.4892E-01  0.4896E-01  0.3300E+00  0.3300E+00
      2.751  0.5123E-03  0.5135E-03  0.3300E+00  0.3300E+00
      2.837  0.2587E-07  0.2598E-07  0.3300E+00  0.3300E+00
      2.923  0.1108E-09  0.1111E-09  0.3300E+00  0.3300E+00
      3.009  0.2125E-04  0.2129E-04  0.3300E+00  0.3300E+00
      3.094  0.1837E-01  0.1837E-01  0.3316E+00  0.3316E+00
      3.180  0.1715E+00  0.1715E+00  0.3463E+00  0.3463E+00
      3.266  0.1337E+00  0.1337E+00  0.3578E+00  0.3578E+00
      3.352  0.1867E+00  0.1867E+00  0.3738E+00  0.3738E+00
      3.438  0.2125E+00  0.2125E+00  0.3921E+00  0.3921E+00
      3.524  0.2635E+00  0.2635E+00  0.4147E+00  0.4147E+00
      3.610  0.1506E+00  0.1505E+00  0.4276E+00  0.4276E+00
      3.696  0.2267E+00  0.2267E+00  0.4471E+00  0.4471E+00
      3.782  0.2349E+00  0.2349E+00  0.4673E+00  0.4673E+00
      3.867  0.2269E+00  0.2269E+00  0.4868E+00  0.4868E+00
      3.953  0.1771E+00  0.1771E+00  0.5020E+00  0.5020E+00
      4.039  0.2041E+00  0.2041E+00  0.5195E+00  0.5195E+00
      4.125  0.1700E+00  0.1701E+00  0.5341E+00  0.5341E+00
      4.211  0.1032E+00  0.1031E+00  0.5430E+00  0.5430E+00
      4.297  0.2198E+00  0.2198E+00  0.5618E+00  0.5618E+00
      4.383  0.9357E-01  0.9362E-01  0.5699E+00  0.5699E+00
      4.469  0.3798E-02  0.3799E-02  0.5702E+00  0.5702E+00
      4.554  0.7299E-01  0.7299E-01  0.5765E+00  0.5765E+00
      4.640  0.6790E-01  0.6791E-01  0.5823E+00  0.5823E+00
      4.726  0.1588E+00  0.1588E+00  0.5959E+00  0.5959E+00
      4.812  0.2339E+00  0.2339E+00  0.6160E+00  0.6160E+00
      4.898  0.2170E+00  0.2170E+00  0.6347E+00  0.6347E+00
      4.984  0.2066E+00  0.2066E+00  0.6524E+00  0.6524E+00
      5.070  0.1760E+00  0.1760E+00  0.6675E+00  0.6675E+00
      5.156  0.1176E+00  0.1176E+00  0.6776E+00  0.6776E+00
      5.242  0.2042E+00  0.2043E+00  0.6952E+00  0.6952E+00
      5.327  0.2357E+00  0.2357E+00  0.7154E+00  0.7154E+00
      5.413  0.2390E+00  0.2389E+00  0.7359E+00  0.7359E+00
      5.499  0.1910E+00  0.1909E+00  0.7523E+00  0.7523E+00
      5.585  0.1777E+00  0.1778E+00  0.7676E+00  0.7676E+00
      5.671  0.9304E-01  0.9305E-01  0.7756E+00  0.7756E+00
      5.757  0.1296E+00  0.1296E+00  0.7867E+00  0.7867E+00
      5.843  0.8304E-01  0.8303E-01  0.7938E+00  0.7938E+00
      5.929  0.7971E-01  0.7972E-01  0.8007E+00  0.8007E+00
      6.014  0.9151E-01  0.9151E-01  0.8085E+00  0.8085E+00
      6.100  0.1688E-01  0.1689E-01  0.8100E+00  0.8100E+00
      6.186  0.2852E-04  0.2854E-04  0.8100E+00  0.8100E+00
      6.272  0.1928E-09  0.1930E-09  0.8100E+00  0.8100E+00
      6.358  0.0000E+00  0.0000E+00  0.8100E+00  0.8100E+00
      6.444  0.0000E+00  0.0000E+00  0.8100E+00  0.8100E+00
      6.530  0.0000E+00  0.0000E+00  0.8100E+00  0.8100E+00
      6.616  0.0000E+00  0.0000E+00  0.8100E+00  0.8100E+00
      6.702  0.0000E+00  0.0000E+00  0.8100E+00  0.8100E+00
      6.787  0.0000E+00  0.0000E+00  0.8100E+00  0.8100E+00
      6.873  0.0000E+00  0.0000E+00  0.8100E+00  0.8100E+00
      6.959  0.1371E-10  0.1370E-10  0.8100E+00  0.8100E+00
      7.045  0.5442E-05  0.5440E-05  0.8100E+00  0.8100E+00
      7.131  0.8249E-02  0.8247E-02  0.8107E+00  0.8107E+00
      7.217  0.1197E+00  0.1197E+00  0.8210E+00  0.8210E+00
      7.303  0.1038E+00  0.1038E+00  0.8299E+00  0.8299E+00
      7.389  0.8394E-01  0.8394E-01  0.8371E+00  0.8371E+00
      7.474  0.1379E+00  0.1379E+00  0.8490E+00  0.8490E+00
      7.560  0.2125E+00  0.2125E+00  0.8672E+00  0.8672E+00
      7.646  0.1741E+00  0.1741E+00  0.8822E+00  0.8822E+00
      7.732  0.1495E+00  0.1495E+00  0.8950E+00  0.8950E+00
      7.818  0.1790E+00  0.1790E+00  0.9104E+00  0.9104E+00
      7.904  0.1916E+00  0.1916E+00  0.9268E+00  0.9268E+00
      7.990  0.3694E-01  0.3694E-01  0.9300E+00  0.9300E+00
      8.076  0.1115E-03  0.1112E-03  0.9300E+00  0.9300E+00
      8.162  0.2288E-01  0.2283E-01  0.9320E+00  0.9320E+00
      8.247  0.1780E+00  0.1780E+00  0.9473E+00  0.9472E+00
      8.333  0.1560E+00  0.1560E+00  0.9606E+00  0.9606E+00
      8.419  0.2167E+00  0.2167E+00  0.9793E+00  0.9793E+00
      8.505  0.2165E+00  0.2165E+00  0.9979E+00  0.9979E+00
      8.591  0.7793E-01  0.7794E-01  0.1005E+01  0.1005E+01
      8.677  0.1466E+00  0.1466E+00  0.1017E+01  0.1017E+01
      8.763  0.1861E+00  0.1861E+00  0.1033E+01  0.1033E+01
      8.849  0.2019E+00  0.2019E+00  0.1050E+01  0.1050E+01
      8.935  0.2621E+00  0.2621E+00  0.1073E+01  0.1073E+01
      9.020  0.1842E+00  0.1842E+00  0.1089E+01  0.1089E+01
      9.106  0.1628E+00  0.1627E+00  0.1103E+01  0.1103E+01
      9.192  0.2094E+00  0.2095E+00  0.1121E+01  0.1121E+01
      9.278  0.2241E+00  0.2242E+00  0.1140E+01  0.1140E+01
      9.364  0.2157E+00  0.2157E+00  0.1159E+01  0.1159E+01
      9.450  0.1587E+00  0.1587E+00  0.1172E+01  0.1172E+01
      9.536  0.2482E+00  0.2482E+00  0.1193E+01  0.1193E+01
      9.622  0.1201E+00  0.1201E+00  0.1204E+01  0.1204E+01
      9.707  0.7704E-01  0.7703E-01  0.1210E+01  0.1210E+01
      9.793  0.1519E+00  0.1519E+00  0.1223E+01  0.1223E+01
      9.879  0.1517E+00  0.1517E+00  0.1236E+01  0.1236E+01
      9.965  0.1889E+00  0.1888E+00  0.1253E+01  0.1253E+01
     10.051  0.1274E+00  0.1275E+00  0.1264E+01  0.1264E+01
     10.137  0.1646E+00  0.1646E+00  0.1278E+01  0.1278E+01
     10.223  0.3031E+00  0.3030E+00  0.1304E+01  0.1304E+01
     10.309  0.1933E+00  0.1933E+00  0.1320E+01  0.1320E+01
     10.395  0.2140E+00  0.2140E+00  0.1339E+01  0.1339E+01
     10.480  0.1720E+00  0.1719E+00  0.1354E+01  0.1354E+01
     10.566  0.2885E+00  0.2885E+00  0.1378E+01  0.1378E+01
     10.652  0.2874E+00  0.2874E+00  0.1403E+01  0.1403E+01
     10.738  0.2255E+00  0.2256E+00  0.1422E+01  0.1422E+01
     10.824  0.1733E+00  0.1733E+00  0.1437E+01  0.1437E+01
     10.910  0.1413E+00  0.1412E+00  0.1449E+01  0.1449E+01
     10.996  0.5004E-01  0.5001E-01  0.1454E+01  0.1454E+01
     11.082  0.1694E+00  0.1694E+00  0.1468E+01  0.1468E+01
     11.167  0.1139E+00  0.1139E+00  0.1478E+01  0.1478E+01
     11.253  0.1436E+00  0.1437E+00  0.1490E+01  0.1490E+01
     11.339  0.1774E+00  0.1773E+00  0.1506E+01  0.1506E+01
     11.425  0.2683E+00  0.2683E+00  0.1529E+01  0.1529E+01
     11.511  0.1942E+00  0.1942E+00  0.1545E+01  0.1545E+01
     11.597  0.8296E-01  0.8300E-01  0.1552E+01  0.1552E+01
     11.683  0.1306E+00  0.1305E+00  0.1564E+01  0.1564E+01
     11.769  0.1571E+00  0.1570E+00  0.1577E+01  0.1577E+01
     11.855  0.1850E+00  0.1851E+00  0.1593E+01  0.1593E+01
     11.940  0.2927E+00  0.2927E+00  0.1618E+01  0.1618E+01
     12.026  0.2022E+00  0.2022E+00  0.1636E+01  0.1636E+01
     12.112  0.1973E+00  0.1972E+00  0.1652E+01  0.1652E+01
     12.198  0.2140E+00  0.2140E+00  0.1671E+01  0.1671E+01