  100  100  100    2
  0.1064800E+02  0.1021149E-08  0.1021149E-08  0.1021149E-08  0.3000000E-14
   2000.00000000000     
  CAR 
 unknown system                          
    400      1    304
 
  0.0000000E+00  0.0000000E+00  0.0000000E+00  0.1000000E+01
    1       -3.120402     -3.120403   1.000000   1.000000
    2       -2.013432     -2.013432   1.000000   1.000000
    3       -1.885335     -1.885335   1.000000   1.000000
    4       -1.779390     -1.779395   1.000000   1.000000
    5       -1.755435     -1.755445   1.000000   1.000000
    6       -1.608148     -1.608147   1.000000   1.000000
    7       -1.494739     -1.494740   1.000000   1.000000
    8       -0.704271     -0.704277   1.000000   1.000000
    9       -0.669183     -0.669173   1.000000   1.000000
   10       -0.630554     -0.630551   1.000000   1.000000
   11       -0.539829     -0.539827   1.000000   1.000000
   12       -0.501383     -0.501371   1.000000   1.000000
   13       -0.437278     -0.437284   1.000000   1.000000
   14       -0.358309     -0.358309   1.000000   1.000000
   15       -0.292702     -0.292706   1.000000   1.000000
   16       -0.222334     -0.222353   1.000000   1.000000
   17       -0.143616     -0.143613   1.000000   1.000000
   18       -0.064055     -0.064066   1.000000   1.000000
   19        0.200082      0.200078   1.000000   1.000000
   20        0.724194      0.724188   1.000000   1.000000
   21        0.841790      0.841779   1.000000   1.000000
   22        0.863990      0.864002   1.000000   1.000000
   23        0.981848      0.981855   1.000000   1.000000
   24        1.071876      1.071868   1.000000   1.000000
   25        1.118545      1.118541   1.000000   1.000000
   26        1.309054      1.309029   1.000000   1.000000
   27        1.410403      1.410400   1.000000   1.000000
   28        2.160404      2.160405   1.000000   1.000000
   29        2.279328      2.279326   1.000000   1.000000
   30        2.318004      2.318001   1.000000   1.000000
   31        2.397820      2.397813   1.000000   1.000000
   32        2.449927      2.449928   1.000000   1.000000
   33        2.572398      2.572425   1.000000   1.000000
   34        3.135069      3.135054   1.000000   1.000000
   35        3.159584      3.159587   1.000000   1.000000
   36        3.264516      3.264523   1.000000   1.000000
   37        3.289228      3.289228   1.000000   1.000000
   38        3.360154      3.360142   1.000000   1.000000
   39        3.432715      3.432718   1.000000   1.000000
   40        3.443837      3.443836   1.000000   1.000000
   41        3.465385      3.465374   1.000000   1.000000
   42        3.521750      3.521736   1.000000   1.000000
   43        3.603944      3.603975   1.000000   1.000000
   44        3.641353      3.641354   1.000000   1.000000
   45        3.683382      3.683388   1.000000   1.000000
   46        3.736674      3.736677   1.000000   1.000000
   47        3.769429      3.769420   1.000000   1.000000
   48        3.812350      3.812354   1.000000   1.000000
   49        3.870295      3.870307   1.000000   1.000000
   50        3.888977      3.888976   1.000000   1.000000
   51        3.992020      3.992043   1.000000   1.000000
   52        3.997910      3.997910   1.000000   1.000000
   53        4.075001      4.075015   1.000000   1.000000
   54        4.126143      4.126135   1.000000   1.000000
   55        4.235249      4.235240   1.000000   1.000000
   56        4.267862      4.267905   1.000000   1.000000
   57        4.302938      4.302949   1.000000   1.000000
   58        4.541198      4.541197   1.000000   1.000000
   59        4.667670      4.667667   1.000000   1.000000
   60        4.719297      4.719268   1.000000   1.000000
   61        4.787565      4.787562   1.000000   1.000000
   62        4.796489      4.796491   1.000000   1.000000
   63        4.844956      4.844963   1.000000   1.000000
   64        4.906043      4.906050   1.000000   1.000000
   65        4.938672      4.938679   1.000000   1.000000
   66        5.001347      5.001354   1.000000   1.000000
   67        5.043852      5.043873   1.000000   1.000000
   68        5.151783      5.151790   1.000000   1.000000
   69        5.183643      5.183647   1.000000   1.000000
   70        5.246714      5.246699   1.000000   1.000000
   71        5.282657      5.282650   1.000000   1.000000
   72        5.326342      5.326331   1.000000   1.000000
   73        5.366128      5.366120   1.000000   1.000000
   74        5.419360      5.419353   1.000000   1.000000
   75        5.436236      5.436252   1.000000   1.000000
   76        5.525558      5.525571   1.000000   1.000000
   77        5.555839      5.555837   1.000000   1.000000
   78        5.667851      5.667844   1.000000   1.000000
   79        5.740909      5.740902   1.000000   1.000000
   80        5.852936      5.852942   1.000000   1.000000
   81        5.977101      5.977107   1.000000   1.000000
   82        7.183210      7.183213   1.000000   1.000000
   83        7.238560      7.238556   1.000000   1.000000
   84        7.371874      7.371866   1.000000   1.000000
   85        7.455777      7.455788   1.000000   1.000000
   86        7.511082      7.511090   1.000000   1.000000
   87        7.534454      7.534432   1.000000   1.000000
   88        7.629261      7.629265   1.000000   1.000000
   89        7.643775      7.643771   1.000000   1.000000
   90        7.742459      7.742461   1.000000   1.000000
   91        7.773313      7.773364   1.000000   1.000000
   92        7.864926      7.864941   1.000000   1.000000
   93        7.871908      7.871892   1.000000   1.000000
   94        8.196635      8.196695   1.000000   1.000000
   95        8.225068      8.225089   1.000000   1.000000
   96        8.301411      8.301419   1.000000   1.000000
   97        8.359869      8.359862   1.000000   1.000000
   98        8.404499      8.404494   1.000000   1.000000
   99        8.443615      8.443627   1.000000   1.000000
  100        8.472189      8.472172   1.000000   1.000000
  101        8.597220      8.597207   1.000000   1.000000
  102        8.660236      8.660206   1.000000   1.000000
  103        8.742704      8.742700   1.000000   1.000000
  104        8.755171      8.755157   1.000000   1.000000
  105        8.845313      8.845310   1.000000   1.000000
  106        8.854975      8.855004   1.000000   1.000000
  107        8.898022      8.898042   1.000000   1.000000
  108        8.941827      8.941837   1.000000   1.000000
  109        8.993448      8.993449   1.000000   1.000000
  110        9.063263      9.063298   1.000000   1.000000
  111        9.118902      9.118977   1.000000   1.000000
  112        9.174954      9.175006   1.000000   1.000000
  113        9.203626      9.203635   1.000000   1.000000
  114        9.256324      9.256331   1.000000   1.000000
  115        9.309713      9.309716   1.000000   1.000000
  116        9.322555      9.322553   1.000000   1.000000
  117        9.429117      9.429110   1.000000   1.000000
  118        9.454933      9.454927   1.000000   1.000000
  119        9.513604      9.513634   1.000000   1.000000
  120        9.524608      9.524629   1.000000   1.000000
  121        9.632103      9.632089   1.000000   1.000000
  122        9.767095      9.767100   1.000000   1.000000
  123        9.788235      9.788210   1.000000   1.000000
  124        9.869107      9.869114   1.000000   1.000000
  125        9.946519      9.946528   1.000000   1.000000
  126        9.958909      9.958964   1.000000   1.000000
  127       10.063569     10.063557   1.000000   1.000000
  128       10.136547     10.136536   1.000000   1.000000
  129       10.163757     10.163754   1.000000   1.000000
  130       10.193580     10.193584   1.000000   1.000000
  131       10.214507     10.214514   1.000000   1.000000
  132       10.282433     10.282456   1.000000   1.000000
  133       10.332470     10.332446   1.000000   1.000000
  134       10.379632     10.379625   1.000000   1.000000
  135       10.417945     10.417909   1.000000   1.000000
  136       10.509048     10.509023   1.000000   1.000000
  137       10.515966     10.515957   1.000000   1.000000
  138       10.547668     10.547667   1.000000   1.000000
  139       10.598155     10.598145   1.000000   1.000000
  140       10.618216     10.618244   1.000000   1.000000
  141       10.653499     10.653481   1.000000   1.000000
  142       10.713108     10.713091   1.000000   1.000000
  143       10.740156     10.740149   1.000000   1.000000
  144       10.820709     10.820699   1.000000   1.000000
  145       10.853757     10.853764   1.000000   1.000000
  146       11.013935     11.013962   1.000000   1.000000
  147       11.048946     11.048947   1.000000   1.000000
  148       11.148384     11.148410   1.000000   1.000000
  149       11.213505     11.213501   1.000000   1.000000
  150       11.287970     11.287960   1.000000   1.000000
  151       11.354096     11.354149   1.000000   1.000000
  152       11.366779     11.366811   1.000000   1.000000
  153       11.389639     11.389662   1.000000   1.000000
  154       11.480271     11.480270   1.000000   1.000000
  155       11.490175     11.490192   1.000000   1.000000
  156       11.621731     11.621716   1.000000   1.000000
  157       11.692073     11.692075   1.000000   1.000000
  158       11.765610     11.765690   1.000000   1.000000
  159       11.799209     11.799222   1.000000   1.000000
  160       11.884690     11.884675   1.000000   1.000000
  161       11.898133     11.898128   1.000000   1.000000
  162       11.909200     11.909213   1.000000   1.000000
  163       11.974752     11.974782   1.000000   1.000000
  164       12.019695     12.019699   1.000000   1.000000
  165       12.085527     12.085548   1.000000   1.000000
  166       12.116849     12.116891   1.000000   1.000000
  167       12.180240     12.180268   1.000000   1.000000
  168       12.210268     12.210310   1.000000   1.000000
  169       12.260766     12.260776   1.000000   1.000000
  170       12.308470     12.308533   1.000000   1.000000
  171       12.390007     12.390023   1.000000   1.000000
  172       12.835992     12.836016   1.000000   1.000000
  173       12.858407     12.858522   1.000000   1.000000
  174       13.034448     13.034449   1.000000   1.000000
  175       13.040873     13.040870   1.000000   1.000000
  176       13.081969     13.081984   1.000000   1.000000
  177       13.202824     13.202855   1.000000   1.000000
  178       13.237359     13.237383   1.000000   1.000000
  179       13.464678     13.464653   1.000000   1.000000
  180       13.474899     13.474872   1.000000   1.000000
  181       13.613908     13.613904   1.000000   1.000000
  182       13.695987     13.695999   1.000000   1.000000
  183       13.735825     13.735848   1.000000   1.000000
  184       13.787242     13.787474   1.000000   1.000000
  185       13.874714     13.874757   1.000000   1.000000
  186       13.894297     13.894291   1.000000   1.000000
  187       13.925574     13.925644   1.000000   1.000000
  188       14.049795     14.049813   1.000000   1.000000
  189       14.089400     14.089403   1.000000   1.000000
  190       14.106599     14.106581   1.000000   1.000000
  191       14.160887     14.160927   1.000000   1.000000
  192       14.237297     14.237313   1.000000   1.000000
  193       14.266373     14.266396   1.000000   1.000000
  194       14.318652     14.318639   1.000000   1.000000
  195       14.396200     14.396194   1.000000   1.000000
  196       14.454387     14.454372   1.000000   1.000000
  197       14.481576     14.481597   1.000000   1.000000
  198       14.518550     14.518567   0.999970   0.999970
  199       14.585109     14.585092   0.983399   0.983418
  200       14.641777     14.641759   0.700837   0.701015
  201       14.686495     14.686476   0.230259   0.230424
  202       14.708840     14.708836   0.085340   0.085361
  203       14.820666     14.820692   0.000003   0.000003
  204       14.861438     14.861479   0.000000   0.000000
  205       14.880868     14.880845   0.000000   0.000000
  206       14.947902     14.947920   0.000000   0.000000
  207       15.013706     15.013791   0.000000   0.000000
  208       15.085221     15.085230   0.000000   0.000000
  209       15.095708     15.095701   0.000000   0.000000
  210       15.165505     15.165452   0.000000   0.000000
  211       15.189526     15.189597   0.000000   0.000000
  212       15.230295     15.230378   0.000000   0.000000
  213       15.268279     15.268255   0.000000   0.000000
  214       15.296626     15.296691   0.000000   0.000000
  215       15.347743     15.347763   0.000000   0.000000
  216       15.374102     15.374076   0.000000   0.000000
  217       15.427226     15.427211   0.000000   0.000000
  218       15.431259     15.431317   0.000000   0.000000
  219       15.477779     15.477778   0.000000   0.000000
  220       15.594732     15.594716   0.000000   0.000000
  221       15.626957     15.627167   0.000000   0.000000
  222       15.641447     15.641443   0.000000   0.000000
  223       15.665596     15.665504   0.000000   0.000000
  224       15.677828     15.677873   0.000000   0.000000
  225       15.737746     15.737726   0.000000   0.000000
  226       15.783326     15.783304   0.000000   0.000000
  227       15.787774     15.787831   0.000000   0.000000
  228       15.870730     15.870737   0.000000   0.000000
  229       15.891918     15.891945   0.000000   0.000000
  230       15.933747     15.933776   0.000000   0.000000
  231       16.025748     16.025773   0.000000   0.000000
  232       16.084475     16.084497   0.000000   0.000000
  233       16.110556     16.110510   0.000000   0.000000
  234       16.136848     16.136881   0.000000   0.000000
  235       16.151117     16.151155   0.000000   0.000000
  236       16.177953     16.177954   0.000000   0.000000
  237       16.236784     16.236766   0.000000   0.000000
  238       16.264428     16.264417   0.000000   0.000000
  239       16.292889     16.292903   0.000000   0.000000
  240       16.380185     16.380189   0.000000   0.000000
  241       16.398275     16.398269   0.000000   0.000000
  242       16.474328     16.474331   0.000000   0.000000
  243       16.499424     16.499504   0.000000   0.000000
  244       16.559395     16.559403   0.000000   0.000000
  245       16.653731     16.653792   0.000000   0.000000
  246       16.686500     16.686503   0.000000   0.000000
  247       16.758360     16.758452   0.000000   0.000000
  248       16.829742     16.829781   0.000000   0.000000
  249       16.857377     16.857479   0.000000   0.000000
  250       17.024956     17.025008   0.000000   0.000000
  251       17.121676     17.121713   0.000000   0.000000
  252       17.831118     17.831111   0.000000   0.000000
  253       17.872270     17.872265   0.000000   0.000000
  254       17.927582     17.927730   0.000000   0.000000
  255       17.944799     17.944789   0.000000   0.000000
  256       18.093500     18.093635   0.000000   0.000000
  257       18.159238     18.159230   0.000000   0.000000
  258       18.361482     18.361593   0.000000   0.000000
  259       18.439019     18.438923   0.000000   0.000000
  260       18.474170     18.474170   0.000000   0.000000
  261       18.549128     18.549040   0.000000   0.000000
  262       18.566444     18.566466   0.000000   0.000000
  263       18.661004     18.660865   0.000000   0.000000
  264       18.716213     18.716166   0.000000   0.000000
  265       18.745698     18.745742   0.000000   0.000000
  266       18.826131     18.826144   0.000000   0.000000
  267       18.891560     18.891866   0.000000   0.000000
  268       18.919589     18.919992   0.000000   0.000000
  269       18.949088     18.949529   0.000000   0.000000
  270       18.980455     18.980270   0.000000   0.000000
  271       19.013890     19.013760   0.000000   0.000000
  272       19.044367     19.044600   0.000000   0.000000
  273       19.069922     19.070314   0.000000   0.000000
  274       19.099920     19.100012   0.000000   0.000000
  275       19.126647     19.126774   0.000000   0.000000
  276       19.191283     19.191299   0.000000   0.000000
  277       19.200605     19.201120   0.000000   0.000000
  278       19.230458     19.230477   0.000000   0.000000
  279       19.285469     19.285811   0.000000   0.000000
  280       19.296712     19.296338   0.000000   0.000000
  281       19.319289     19.318931   0.000000   0.000000
  282       19.383195     19.383211   0.000000   0.000000
  283       19.418310     19.417236   0.000000   0.000000
  284       19.436301     19.435931   0.000000   0.000000
  285       19.497759     19.497912   0.000000   0.000000
  286       19.547452     19.547764   0.000000   0.000000
  287       19.585395     19.585878   0.000000   0.000000
  288       19.616831     19.613538   0.000000   0.000000
  289       19.664112     19.666342   0.000000   0.000000
  290       19.707638     19.707548   0.000000   0.000000
  291       19.740925     19.741237   0.000000   0.000000
  292       19.791265     19.789705   0.000000   0.000000
  293       19.847247     19.845063   0.000000   0.000000
  294       19.861424     19.859717   0.000000   0.000000
  295       19.884462     19.883911   0.000000   0.000000
  296       19.936253     19.931077   0.000000   0.000000
  297       19.945048     19.948774   0.000000   0.000000
  298       19.994948     19.992919   0.000000   0.000000
  299       20.019957     20.012353   0.000000   0.000000
  300       20.057527     20.073708   0.000000   0.000000
  301       20.135300     20.148100   0.000000   0.000000
  302       20.199745     20.190637   0.000000   0.000000
  303       20.237950     20.209312   0.000000   0.000000
  304       20.302357     20.266458   0.000000   0.000000
