       N       E                     dE             d eps       ncg     rms          rms(c)
DAV:   1     0.922628863642E+03    0.92263E+03   -0.10416E+05  1216   0.635E+02
DAV:   2    -0.205680612988E+03   -0.11283E+04   -0.10562E+04  1504   0.155E+02
DAV:   3    -0.266143659418E+03   -0.60463E+02   -0.57768E+02  1504   0.317E+01
DAV:   4    -0.267567144917E+03   -0.14235E+01   -0.14040E+01  1568   0.499E+00
DAV:   5    -0.267600988011E+03   -0.33843E-01   -0.33722E-01  1488   0.704E-01    0.813E+01
RMM:   6    -0.250579641512E+03    0.17021E+02   -0.95457E+01  1222   0.736E+00    0.510E+01
RMM:   7    -0.249795264865E+03    0.78438E+00   -0.14711E+01  1224   0.354E+00    0.304E+01
RMM:   8    -0.252001225634E+03   -0.22060E+01   -0.55653E+00  1218   0.236E+00    0.522E+00
RMM:   9    -0.252182697835E+03   -0.18147E+00   -0.92143E-01  1227   0.110E+00    0.230E+00
RMM:  10    -0.252197109782E+03   -0.14412E-01   -0.19237E-01  1225   0.440E-01    0.128E+00
RMM:  11    -0.252217484586E+03   -0.20375E-01   -0.48564E-02  1224   0.219E-01    0.726E-01
RMM:  12    -0.252226674651E+03   -0.91901E-02   -0.12866E-02  1226   0.121E-01    0.308E-01
RMM:  13    -0.252229174964E+03   -0.25003E-02   -0.35402E-03  1232   0.656E-02    0.129E-01
RMM:  14    -0.252229812798E+03   -0.63783E-03   -0.10033E-03  1228   0.352E-02    0.648E-02
RMM:  15    -0.252230015822E+03   -0.20302E-03   -0.35257E-04  1218   0.207E-02    0.362E-02
RMM:  16    -0.252230089358E+03   -0.73536E-04   -0.14706E-04  1216   0.136E-02    0.181E-02
RMM:  17    -0.252230103678E+03   -0.14320E-04   -0.41460E-05   958   0.714E-03    0.795E-03
RMM:  18    -0.252230103970E+03   -0.29197E-06   -0.92389E-06   812   0.374E-03
    1 T=     0. E= -.25223010E+03 F= -.25223010E+03 E0= -.25220808E+03  EK= 0.00000E+00 SP= 0.00E+00 SK= 0.00E+00 mag=      0.004
       N       E                     dE             d eps       ncg     rms          rms(c)
DAV:   1    -0.256478095625E+03   -0.42480E+01   -0.21531E+00  1376   0.214E+00    0.945E-01
RMM:   2    -0.256475723801E+03    0.23718E-02   -0.13824E-01  1216   0.558E-01    0.465E-01
RMM:   3    -0.256473521756E+03    0.22020E-02   -0.59415E-03  1222   0.932E-02    0.332E-01
RMM:   4    -0.256472752628E+03    0.76913E-03   -0.12667E-03  1244   0.379E-02    0.213E-01
RMM:   5    -0.256472526791E+03    0.22584E-03   -0.45489E-04  1216   0.216E-02    0.438E-02
RMM:   6    -0.256472490391E+03    0.36401E-04   -0.38699E-05   976   0.615E-03    0.167E-02
RMM:   7    -0.256472480616E+03    0.97746E-05   -0.68713E-06   784   0.312E-03
    2 T=   333. E= -.25226012E+03 F= -.25647248E+03 E0= -.25645180E+03  EK= 0.42565E+01 SP= -.10E+01 SK= 0.10E+01 mag=      0.000
       N       E                     dE             d eps       ncg     rms          rms(c)
DAV:   1    -0.268333812038E+03   -0.11861E+02   -0.67354E+00  1344   0.427E+00    0.143E+00
RMM:   2    -0.268393113098E+03   -0.59301E-01   -0.63854E-01  1216   0.117E+00    0.399E-01
RMM:   3    -0.268394206294E+03   -0.10932E-02   -0.15966E-02  1252   0.173E-01    0.376E-01
RMM:   4    -0.268393935579E+03    0.27071E-03   -0.10939E-03  1264   0.463E-02    0.314E-01
RMM:   5    -0.268393803070E+03    0.13251E-03   -0.17925E-04  1198   0.139E-02    0.207E-01
RMM:   6    -0.268393781440E+03    0.21631E-04   -0.34909E-05   950   0.654E-03    0.121E-01
RMM:   7    -0.268393779557E+03    0.18824E-05   -0.10365E-04  1179   0.963E-03    0.110E-02
RMM:   8    -0.268393776941E+03    0.26161E-05   -0.21168E-06   776   0.210E-03
    3 T=  1339. E= -.25235874E+03 F= -.26839378E+03 E0= -.26837550E+03  EK= 0.17137E+02 SP= -.38E+01 SK= 0.27E+01 mag=     -0.001
       N       E                     dE             d eps       ncg     rms          rms(c)
DAV:   1    -0.285802301149E+03   -0.17409E+02   -0.25290E+00  1664   0.454E+00    0.634E-01
RMM:   2    -0.285898098707E+03   -0.95798E-01   -0.96907E-01  1216   0.110E+00    0.275E-01
RMM:   3    -0.285902552227E+03   -0.44535E-02   -0.45566E-02  1251   0.202E-01    0.214E-01
RMM:   4    -0.285902885212E+03   -0.33298E-03   -0.34484E-03  1356   0.557E-02    0.177E-01
RMM:   5    -0.285902874275E+03    0.10937E-04   -0.19760E-04  1216   0.161E-02    0.339E-02
RMM:   6    -0.285902873586E+03    0.68903E-06   -0.16693E-05   839   0.499E-03
    4 T=  2970. E= -.25257856E+03 F= -.28590287E+03 E0= -.28588153E+03  EK= 0.38011E+02 SP= -.72E+01 SK= 0.25E+01 mag=      0.007
       N       E                     dE             d eps       ncg     rms          rms(c)
DAV:   1    -0.306116122466E+03   -0.20213E+02   -0.27208E+00  1744   0.575E+00    0.126E+00
RMM:   2    -0.306196902432E+03   -0.80780E-01   -0.88003E-01  1216   0.128E+00    0.469E-01
RMM:   3    -0.306199385177E+03   -0.24827E-02   -0.37502E-02  1221   0.182E-01    0.354E-01
RMM:   4    -0.306199433517E+03   -0.48340E-04   -0.26625E-03  1332   0.495E-02    0.291E-01
RMM:   5    -0.306199302478E+03    0.13104E-03   -0.43455E-04  1216   0.213E-02    0.985E-02
RMM:   6    -0.306199256122E+03    0.46356E-04   -0.80284E-05  1139   0.928E-03    0.169E-02
RMM:   7    -0.306199254570E+03    0.15519E-05   -0.68976E-06   812   0.310E-03
    5 T=  4866. E= -.25302434E+03 F= -.30619925E+03 E0= -.30616695E+03  EK= 0.62269E+02 SP= -.94E+01 SK= 0.27E+00 mag=      0.032
       N       E                     dE             d eps       ncg     rms          rms(c)
DAV:   1    -0.325562620260E+03   -0.19363E+02   -0.65601E+00  1616   0.723E+00    0.247E+00
RMM:   2    -0.325750830713E+03   -0.18821E+00   -0.22356E+00  1216   0.209E+00    0.900E-01
RMM:   3    -0.325748782070E+03    0.20486E-02   -0.60090E-02  1220   0.266E-01    0.700E-01
RMM:   4    -0.325747536018E+03    0.12461E-02   -0.49963E-03  1279   0.713E-02    0.570E-01
RMM:   5    -0.325747124139E+03    0.41188E-03   -0.11441E-03  1216   0.362E-02    0.202E-01
RMM:   6    -0.325746972842E+03    0.15130E-03   -0.39130E-04  1216   0.192E-02    0.265E-02
RMM:   7    -0.325746969094E+03    0.37484E-05   -0.23665E-05   886   0.496E-03
    6 T=  6126. E= -.25355055E+03 F= -.32574697E+03 E0= -.32572011E+03  EK= 0.78389E+02 SP= -.84E+01 SK= 0.22E+01 mag=      0.030
       N       E                     dE             d eps       ncg     rms          rms(c)
DAV:   1    -0.339988648033E+03   -0.14242E+02   -0.75601E+00  1488   0.775E+00    0.343E+00
RMM:   2    -0.340158171465E+03   -0.16952E+00   -0.24759E+00  1216   0.241E+00    0.116E+00
RMM:   3    -0.340148626310E+03    0.95452E-02   -0.46644E-02  1218   0.254E-01    0.897E-01
RMM:   4    -0.340146078583E+03    0.25477E-02   -0.46379E-03  1242   0.691E-02    0.706E-01
RMM:   5    -0.340144707358E+03    0.13712E-02   -0.26865E-03  1216   0.564E-02    0.197E-01
RMM:   6    -0.340144441854E+03    0.26550E-03   -0.57509E-04  1218   0.225E-02    0.432E-02
RMM:   7    -0.340144429788E+03    0.12066E-04   -0.45459E-05   992   0.663E-03    0.210E-02
RMM:   8    -0.340144428154E+03    0.16342E-05   -0.74961E-06   797   0.326E-03
    7 T=  5865. E= -.25357579E+03 F= -.34014443E+03 E0= -.34012015E+03  EK= 0.75057E+02 SP= -.29E+01 SK= 0.14E+02 mag=      0.001
       N       E                     dE             d eps       ncg     rms          rms(c)
DAV:   1    -0.346488978203E+03   -0.63445E+01   -0.62114E+00  1472   0.732E+00    0.321E+00
RMM:   2    -0.346668505929E+03   -0.17953E+00   -0.24838E+00  1216   0.242E+00    0.152E+00
RMM:   3    -0.346662647665E+03    0.58583E-02   -0.41051E-02  1216   0.239E-01    0.120E+00
RMM:   4    -0.346661516847E+03    0.11308E-02   -0.42972E-03  1234   0.661E-02    0.821E-01
RMM:   5    -0.346660043955E+03    0.14729E-02   -0.33484E-03  1216   0.603E-02    0.990E-02
RMM:   6    -0.346659988208E+03    0.55747E-04   -0.23894E-04  1216   0.149E-02    0.330E-02
RMM:   7    -0.346659979051E+03    0.91568E-05   -0.30596E-05   912   0.534E-03
    8 T=  4353. E= -.25293556E+03 F= -.34665998E+03 E0= -.34664103E+03  EK= 0.55700E+02 SP= 0.69E+01 SK= 0.31E+02 mag=     -0.006
       N       E                     dE             d eps       ncg     rms          rms(c)
DAV:   1    -0.348008565756E+03   -0.13486E+01   -0.85328E+00  1408   0.681E+00    0.325E+00
RMM:   2    -0.348158777164E+03   -0.15021E+00   -0.23097E+00  1216   0.232E+00    0.159E+00
RMM:   3    -0.348152087361E+03    0.66898E-02   -0.37212E-02  1216   0.243E-01    0.123E+00
RMM:   4    -0.348150439946E+03    0.16474E-02   -0.53737E-03  1225   0.742E-02    0.695E-01
RMM:   5    -0.348148869978E+03    0.15700E-02   -0.27871E-03  1216   0.510E-02    0.100E-01
RMM:   6    -0.348148747723E+03    0.12226E-03   -0.22682E-04  1205   0.136E-02    0.414E-02
RMM:   7    -0.348148729746E+03    0.17977E-04   -0.28707E-05   901   0.510E-03    0.214E-02
RMM:   8    -0.348148725970E+03    0.37760E-05   -0.49807E-06   789   0.262E-03
    9 T=  2745. E= -.25222513E+03 F= -.34814873E+03 E0= -.34812791E+03  EK= 0.35126E+02 SP= 0.19E+02 SK= 0.41E+02 mag=      0.001
       N       E                     dE             d eps       ncg     rms          rms(c)
DAV:   1    -0.350336937189E+03   -0.21882E+01   -0.42230E+00  1424   0.501E+00    0.241E+00
RMM:   2    -0.350431150951E+03   -0.94214E-01   -0.12827E+00  1216   0.171E+00    0.106E+00
RMM:   3    -0.350427928042E+03    0.32229E-02   -0.22111E-02  1216   0.182E-01    0.816E-01
RMM:   4    -0.350427037943E+03    0.89010E-03   -0.25802E-03  1224   0.489E-02    0.572E-01
RMM:   5    -0.350425845052E+03    0.11929E-02   -0.15574E-03  1216   0.414E-02    0.109E-01
RMM:   6    -0.350425766750E+03    0.78303E-04   -0.16809E-04  1201   0.118E-02    0.373E-02
RMM:   7    -0.350425751583E+03    0.15166E-04   -0.19039E-05   864   0.419E-03    0.178E-02
RMM:   8    -0.350425748130E+03    0.34530E-05   -0.30888E-06   771   0.207E-03
   10 T=  1763. E= -.25199012E+03 F= -.35042575E+03 E0= -.35039864E+03  EK= 0.22558E+02 SP= 0.33E+02 SK= 0.43E+02 mag=      0.002
       N       E                     dE             d eps       ncg     rms          rms(c)
DAV:   1    -0.355327928330E+03   -0.49022E+01   -0.13067E+00  1568   0.332E+00    0.133E+00
RMM:   2    -0.355367070728E+03   -0.39142E-01   -0.49113E-01  1216   0.105E+00    0.585E-01
RMM:   3    -0.355366016672E+03    0.10541E-02   -0.75883E-03  1216   0.104E-01    0.453E-01
RMM:   4    -0.355365744219E+03    0.27245E-03   -0.74314E-04  1222   0.265E-02    0.332E-01
RMM:   5    -0.355365396104E+03    0.34811E-03   -0.57118E-04  1216   0.247E-02    0.616E-02
RMM:   6    -0.355365373598E+03    0.22506E-04   -0.54093E-05  1028   0.677E-03    0.173E-02
RMM:   7    -0.355365368822E+03    0.47762E-05   -0.55768E-06   787   0.266E-03
   11 T=  1342. E= -.25203839E+03 F= -.35536537E+03 E0= -.35533705E+03  EK= 0.17172E+02 SP= 0.46E+02 SK= 0.40E+02 mag=      0.000
       N       E                     dE             d eps       ncg     rms          rms(c)
DAV:   1    -0.361227232088E+03   -0.58619E+01   -0.63932E-01  1536   0.284E+00    0.105E+00
RMM:   2    -0.361251454808E+03   -0.24223E-01   -0.28545E-01  1216   0.808E-01    0.429E-01
RMM:   3    -0.361250686138E+03    0.76867E-03   -0.41115E-03  1216   0.770E-02    0.331E-01
RMM:   4    -0.361250472327E+03    0.21381E-03   -0.57675E-04  1220   0.236E-02    0.205E-01
RMM:   5    -0.361250326079E+03    0.14625E-03   -0.26837E-04  1216   0.162E-02    0.612E-02
RMM:   6    -0.361250320354E+03    0.57255E-05   -0.27277E-05   899   0.522E-03
   12 T=  1170. E= -.25206761E+03 F= -.36125032E+03 E0= -.36122181E+03  EK= 0.14970E+02 SP= 0.59E+02 SK= 0.35E+02 mag=     -0.001
       N       E                     dE             d eps       ncg     rms          rms(c)
DAV:   1    -0.366567618764E+03   -0.53173E+01   -0.44810E-01  1472   0.268E+00    0.980E-01
RMM:   2    -0.366586914136E+03   -0.19295E-01   -0.22547E-01  1216   0.721E-01    0.400E-01
RMM:   3    -0.366586021313E+03    0.89282E-03   -0.28777E-03  1216   0.657E-02    0.302E-01
RMM:   4    -0.366585835566E+03    0.18575E-03   -0.43172E-04  1216   0.198E-02    0.202E-01
RMM:   5    -0.366585693644E+03    0.14192E-03   -0.28049E-04  1216   0.164E-02    0.597E-02
RMM:   6    -0.366585690025E+03    0.36192E-05   -0.22961E-05   881   0.483E-03
   13 T=  1063. E= -.25204454E+03 F= -.36658569E+03 E0= -.36655533E+03  EK= 0.13603E+02 SP= 0.71E+02 SK= 0.30E+02 mag=     -0.002
       N       E                     dE             d eps       ncg     rms          rms(c)
DAV:   1    -0.370966236088E+03   -0.43805E+01   -0.33067E-01  1488   0.249E+00    0.752E-01
RMM:   2    -0.370981683911E+03   -0.15448E-01   -0.16924E-01  1216   0.609E-01    0.388E-01
RMM:   3    -0.370981084138E+03    0.59977E-03   -0.20252E-03  1216   0.540E-02    0.300E-01
RMM:   4    -0.370980905655E+03    0.17848E-03   -0.41209E-04  1216   0.194E-02    0.164E-01
RMM:   5    -0.370980822508E+03    0.83147E-04   -0.17428E-04  1212   0.122E-02    0.490E-02
RMM:   6    -0.370980819991E+03    0.25167E-05   -0.13899E-05   848   0.361E-03
   14 T=   972. E= -.25200820E+03 F= -.37098082E+03 E0= -.37094845E+03  EK= 0.12435E+02 SP= 0.82E+02 SK= 0.25E+02 mag=     -0.001
       N       E                     dE             d eps       ncg     rms          rms(c)
DAV:   1    -0.374573281628E+03   -0.35925E+01   -0.33885E-01  1648   0.231E+00    0.591E-01
RMM:   2    -0.374584796704E+03   -0.11515E-01   -0.12221E-01  1216   0.518E-01    0.339E-01
RMM:   3    -0.374584382240E+03    0.41446E-03   -0.11603E-03  1216   0.442E-02    0.272E-01
RMM:   4    -0.374584242094E+03    0.14015E-03   -0.27361E-04  1217   0.161E-02    0.143E-01
RMM:   5    -0.374584189840E+03    0.52254E-04   -0.98250E-05  1178   0.903E-03    0.509E-02
RMM:   6    -0.374584185982E+03    0.38577E-05   -0.11887E-05   822   0.343E-03
   15 T=   897. E= -.25197504E+03 F= -.37458419E+03 E0= -.37455022E+03  EK= 0.11475E+02 SP= 0.92E+02 SK= 0.19E+02 mag=      0.001
       N       E                     dE             d eps       ncg     rms          rms(c)
DAV:   1    -0.377676280988E+03   -0.30921E+01   -0.33306E-01  1728   0.215E+00    0.548E-01
RMM:   2    -0.377685725243E+03   -0.94443E-02   -0.10012E-01  1216   0.462E-01    0.280E-01
RMM:   3    -0.377685374302E+03    0.35094E-03   -0.11120E-03  1216   0.404E-02    0.223E-01
RMM:   4    -0.377685268759E+03    0.10554E-03   -0.19651E-04  1215   0.131E-02    0.131E-01
RMM:   5    -0.377685218678E+03    0.50081E-04   -0.87194E-05  1166   0.847E-03    0.488E-02
RMM:   6    -0.377685212917E+03    0.57610E-05   -0.11644E-05   817   0.345E-03
   16 T=   848. E= -.25194946E+03 F= -.37768521E+03 E0= -.37764999E+03  EK= 0.10853E+02 SP= 0.10E+03 SK= 0.15E+02 mag=      0.001
       N       E                     dE             d eps       ncg     rms          rms(c)
DAV:   1    -0.380537382119E+03   -0.28522E+01   -0.31694E-01  1696   0.200E+00    0.502E-01
RMM:   2    -0.380544604753E+03   -0.72226E-02   -0.79816E-02  1216   0.414E-01    0.241E-01
RMM:   3    -0.380544201501E+03    0.40325E-03   -0.83657E-04  1216   0.363E-02    0.191E-01
RMM:   4    -0.380544138065E+03    0.63436E-04   -0.99716E-05  1146   0.917E-03    0.147E-01
RMM:   5    -0.380544058560E+03    0.79504E-04   -0.13338E-04  1208   0.110E-02    0.461E-02
RMM:   6    -0.380544052303E+03    0.62572E-05   -0.14399E-05   842   0.370E-03
   17 T=   833. E= -.25193272E+03 F= -.38054405E+03 E0= -.38050936E+03  EK= 0.10654E+02 SP= 0.11E+03 SK= 0.10E+02 mag=      0.001
       N       E                     dE             d eps       ncg     rms          rms(c)
DAV:   1    -0.383313382216E+03   -0.27693E+01   -0.29026E-01  1808   0.191E+00    0.437E-01
RMM:   2    -0.383319003768E+03   -0.56216E-02   -0.63678E-02  1216   0.370E-01    0.214E-01
RMM:   3    -0.383318692767E+03    0.31100E-03   -0.70013E-04  1216   0.323E-02    0.168E-01
RMM:   4    -0.383318633909E+03    0.58858E-04   -0.10557E-04  1166   0.922E-03    0.120E-01
RMM:   5    -0.383318574413E+03    0.59497E-04   -0.10128E-04  1200   0.945E-03    0.375E-02
RMM:   6    -0.383318569697E+03    0.47158E-05   -0.93363E-06   796   0.306E-03
   18 T=   851. E= -.25192334E+03 F= -.38331857E+03 E0= -.38328495E+03  EK= 0.10893E+02 SP= 0.11E+03 SK= 0.68E+01 mag=     -0.000
       N       E                     dE             d eps       ncg     rms          rms(c)
DAV:   1    -0.386055355413E+03   -0.27368E+01   -0.27239E-01  1872   0.188E+00    0.397E-01
RMM:   2    -0.386060657838E+03   -0.53024E-02   -0.57748E-02  1216   0.355E-01    0.195E-01
RMM:   3    -0.386060447234E+03    0.21060E-03   -0.57636E-04  1216   0.302E-02    0.155E-01
RMM:   4    -0.386060385047E+03    0.62188E-04   -0.10439E-04  1193   0.969E-03    0.927E-02
RMM:   5    -0.386060354320E+03    0.30727E-04   -0.56090E-05  1082   0.696E-03    0.302E-02
RMM:   6    -0.386060351349E+03    0.29709E-05   -0.57702E-06   766   0.264E-03
   19 T=   901. E= -.25191794E+03 F= -.38606035E+03 E0= -.38602652E+03  EK= 0.11536E+02 SP= 0.12E+03 SK= 0.41E+01 mag=     -0.001
       N       E                     dE             d eps       ncg     rms          rms(c)
DAV:   1    -0.388746540755E+03   -0.26862E+01   -0.30473E-01  1808   0.189E+00    0.392E-01
RMM:   2    -0.388752013727E+03   -0.54730E-02   -0.59833E-02  1216   0.365E-01    0.193E-01
RMM:   3    -0.388751791603E+03    0.22212E-03   -0.57611E-04  1216   0.306E-02    0.153E-01
RMM:   4    -0.388751749673E+03    0.41930E-04   -0.64255E-05  1057   0.761E-03    0.113E-01
RMM:   5    -0.388751703822E+03    0.45852E-04   -0.83059E-05  1191   0.878E-03    0.340E-02
RMM:   6    -0.388751700573E+03    0.32485E-05   -0.72379E-06   774   0.276E-03
   20 T=   979. E= -.25191491E+03 F= -.38875170E+03 E0= -.38871793E+03  EK= 0.12531E+02 SP= 0.12E+03 SK= 0.21E+01 mag=     -0.001
       N       E                     dE             d eps       ncg     rms          rms(c)
DAV:   1    -0.391329653126E+03   -0.25779E+01   -0.31319E-01  1776   0.193E+00    0.404E-01
RMM:   2    -0.391335259706E+03   -0.56066E-02   -0.63305E-02  1216   0.379E-01    0.202E-01
RMM:   3    -0.391335006485E+03    0.25322E-03   -0.63595E-04  1216   0.316E-02    0.159E-01
RMM:   4    -0.391334963648E+03    0.42837E-04   -0.72205E-05  1077   0.798E-03    0.116E-01
RMM:   5    -0.391334918760E+03    0.44888E-04   -0.88749E-05  1198   0.907E-03    0.335E-02
RMM:   6    -0.391334915910E+03    0.28506E-05   -0.72916E-06   769   0.271E-03
   21 T=  1080. E= -.25191398E+03 F= -.39133492E+03 E0= -.39130486E+03  EK= 0.13821E+02 SP= 0.12E+03 SK= 0.90E+00 mag=     -0.000
       N       E                     dE             d eps       ncg     rms          rms(c)
DAV:   1    -0.393719914845E+03   -0.23850E+01   -0.35926E-01  1808   0.199E+00    0.450E-01
RMM:   2    -0.393725405777E+03   -0.54909E-02   -0.70499E-02  1216   0.401E-01    0.221E-01
RMM:   3    -0.393725081610E+03    0.32417E-03   -0.96006E-04  1216   0.350E-02    0.170E-01
RMM:   4    -0.393725018182E+03    0.63428E-04   -0.13686E-04  1213   0.106E-02    0.112E-01
RMM:   5    -0.393724971123E+03    0.47059E-04   -0.99634E-05  1205   0.944E-03    0.307E-02
RMM:   6    -0.393724967887E+03    0.32364E-05   -0.78129E-06   806   0.272E-03
   22 T=  1199. E= -.25191519E+03 F= -.39372497E+03 E0= -.39370166E+03  EK= 0.15346E+02 SP= 0.13E+03 SK= 0.25E+00 mag=      0.000
       N       E                     dE             d eps       ncg     rms          rms(c)
DAV:   1    -0.395819160481E+03   -0.20942E+01   -0.38911E-01  1760   0.208E+00    0.472E-01
RMM:   2    -0.395826297790E+03   -0.71373E-02   -0.84165E-02  1216   0.444E-01    0.242E-01
RMM:   3    -0.395825997658E+03    0.30013E-03   -0.92652E-04  1216   0.371E-02    0.189E-01
RMM:   4    -0.395825920027E+03    0.77631E-04   -0.15474E-04  1216   0.119E-02    0.113E-01
RMM:   5    -0.395825875315E+03    0.44712E-04   -0.96182E-05  1195   0.927E-03    0.288E-02
RMM:   6    -0.395825873846E+03    0.14689E-05   -0.71598E-06   799   0.274E-03
   23 T=  1331. E= -.25191578E+03 F= -.39582587E+03 E0= -.39580635E+03  EK= 0.17035E+02 SP= 0.13E+03 SK= 0.14E-01 mag=     -0.000
       N       E                     dE             d eps       ncg     rms          rms(c)
DAV:   1    -0.397563647574E+03   -0.17378E+01   -0.40245E-01  1712   0.219E+00    0.515E-01
RMM:   2    -0.397572526339E+03   -0.88788E-02   -0.10226E-01  1216   0.489E-01    0.259E-01
RMM:   3    -0.397572192998E+03    0.33334E-03   -0.10112E-03  1216   0.400E-02    0.203E-01
RMM:   4    -0.397572108143E+03    0.84855E-04   -0.15003E-04  1217   0.119E-02    0.127E-01
RMM:   5    -0.397572058614E+03    0.49529E-04   -0.11247E-04  1216   0.102E-02    0.299E-02
RMM:   6    -0.397572056127E+03    0.24873E-05   -0.76121E-06   804   0.276E-03
   24 T=  1472. E= -.25191506E+03 F= -.39757206E+03 E0= -.39755315E+03  EK= 0.18834E+02 SP= 0.13E+03 SK= 0.36E-01 mag=     -0.000
       N       E                     dE             d eps       ncg     rms          rms(c)
DAV:   1    -0.398928804546E+03   -0.13567E+01   -0.44791E-01  1664   0.229E+00    0.567E-01
RMM:   2    -0.398939393214E+03   -0.10589E-01   -0.11824E-01  1216   0.536E-01    0.264E-01
RMM:   3    -0.398939063478E+03    0.32974E-03   -0.10625E-03  1216   0.424E-02    0.208E-01
RMM:   4    -0.398938989596E+03    0.73882E-04   -0.14653E-04  1216   0.117E-02    0.135E-01
RMM:   5    -0.398938933964E+03    0.55632E-04   -0.11332E-04  1215   0.102E-02    0.373E-02
RMM:   6    -0.398938930117E+03    0.38471E-05   -0.87940E-06   801   0.298E-03
   25 T=  1617. E= -.25191761E+03 F= -.39893893E+03 E0= -.39891895E+03  EK= 0.20698E+02 SP= 0.13E+03 SK= 0.18E+00 mag=      0.000
       N       E                     dE             d eps       ncg     rms          rms(c)
DAV:   1    -0.399876641727E+03   -0.93771E+00   -0.50565E-01  1664   0.242E+00    0.633E-01
RMM:   2    -0.399889240419E+03   -0.12599E-01   -0.13979E-01  1216   0.586E-01    0.282E-01
RMM:   3    -0.399888890146E+03    0.35027E-03   -0.16821E-03  1216   0.483E-02    0.222E-01
RMM:   4    -0.399888822263E+03    0.67883E-04   -0.18130E-04  1218   0.122E-02    0.156E-01
RMM:   5    -0.399888751318E+03    0.70944E-04   -0.14228E-04  1216   0.115E-02    0.409E-02
RMM:   6    -0.399888747854E+03    0.34648E-05   -0.11675E-05   831   0.335E-03
   26 T=  1761. E= -.25192815E+03 F= -.39988875E+03 E0= -.39986567E+03  EK= 0.22531E+02 SP= 0.13E+03 SK= 0.34E+00 mag=     -0.000
       N       E                     dE             d eps       ncg     rms          rms(c)
DAV:   1    -0.400306180721E+03   -0.41743E+00   -0.54848E-01  1632   0.256E+00    0.713E-01
RMM:   2    -0.400321074114E+03   -0.14893E-01   -0.16600E-01  1216   0.642E-01    0.330E-01
RMM:   3    -0.400320679423E+03    0.39469E-03   -0.16735E-03  1216   0.518E-02    0.261E-01
RMM:   4    -0.400320554282E+03    0.12514E-03   -0.27857E-04  1216   0.164E-02    0.140E-01
RMM:   5    -0.400320503181E+03    0.51101E-04   -0.11726E-04  1216   0.102E-02    0.367E-02
RMM:   6    -0.400320500312E+03    0.28690E-05   -0.88222E-06   813   0.299E-03
   27 T=  1887. E= -.25194250E+03 F= -.40032050E+03 E0= -.40029495E+03  EK= 0.24146E+02 SP= 0.12E+03 SK= 0.44E+00 mag=     -0.000
       N       E                     dE             d eps       ncg     rms          rms(c)
DAV:   1    -0.400128404284E+03    0.19210E+00   -0.56903E-01  1536   0.268E+00    0.787E-01
RMM:   2    -0.400146077728E+03   -0.17673E-01   -0.19781E-01  1216   0.698E-01    0.390E-01
RMM:   3    -0.400145444224E+03    0.63350E-03   -0.19170E-03  1216   0.554E-02    0.310E-01
RMM:   4    -0.400145325283E+03    0.11894E-03   -0.22398E-04  1216   0.142E-02    0.221E-01
RMM:   5    -0.400145197830E+03    0.12745E-03   -0.25636E-04  1216   0.155E-02    0.542E-02
RMM:   6    -0.400145191435E+03    0.63945E-05   -0.20089E-05   869   0.423E-03
   28 T=  1981. E= -.25194378E+03 F= -.40014519E+03 E0= -.40011735E+03  EK= 0.25351E+02 SP= 0.12E+03 SK= 0.47E+00 mag=     -0.000
       N       E                     dE             d eps       ncg     rms          rms(c)
DAV:   1    -0.399483237822E+03    0.66196E+00   -0.72100E-01  1552   0.278E+00    0.853E-01
RMM:   2    -0.399503642795E+03   -0.20405E-01   -0.23282E-01  1216   0.759E-01    0.446E-01
RMM:   3    -0.399502856651E+03    0.78614E-03   -0.20780E-03  1216   0.597E-02    0.354E-01
RMM:   4    -0.399502688298E+03    0.16835E-03   -0.29670E-04  1216   0.164E-02    0.241E-01
RMM:   5    -0.399502520239E+03    0.16806E-03   -0.32535E-04  1216   0.174E-02    0.523E-02
RMM:   6    -0.399502514125E+03    0.61131E-05   -0.19682E-05   865   0.433E-03
   29 T=  2045. E= -.25192561E+03 F= -.39950251E+03 E0= -.39947007E+03  EK= 0.26170E+02 SP= 0.12E+03 SK= 0.45E+00 mag=     -0.000
       N       E                     dE             d eps       ncg     rms          rms(c)
DAV:   1    -0.398787000676E+03    0.71552E+00   -0.78995E-01  1520   0.287E+00    0.902E-01
RMM:   2    -0.398808359100E+03   -0.21358E-01   -0.25769E-01  1216   0.800E-01    0.462E-01
RMM:   3    -0.398807400376E+03    0.95872E-03   -0.26438E-03  1216   0.644E-02    0.361E-01
RMM:   4    -0.398807179074E+03    0.22130E-03   -0.45587E-04  1216   0.201E-02    0.226E-01
RMM:   5    -0.398807000586E+03    0.17849E-03   -0.32840E-04  1216   0.172E-02    0.551E-02
RMM:   6    -0.398806989272E+03    0.11314E-04   -0.27254E-05   913   0.474E-03    0.168E-02
RMM:   7    -0.398806986966E+03    0.23056E-05   -0.30855E-06   741   0.216E-03
   30 T=  2103. E= -.25190826E+03 F= -.39880699E+03 E0= -.39877764E+03  EK= 0.26907E+02 SP= 0.12E+03 SK= 0.39E+00 mag=     -0.000
       N       E                     dE             d eps       ncg     rms          rms(c)
DAV:   1    -0.398449449947E+03    0.35754E+00   -0.71427E-01  1488   0.298E+00    0.945E-01
RMM:   2    -0.398472742710E+03   -0.23293E-01   -0.27701E-01  1216   0.822E-01    0.447E-01
RMM:   3    -0.398471559447E+03    0.11833E-02   -0.30291E-03  1216   0.670E-02    0.349E-01
RMM:   4    -0.398471369665E+03    0.18978E-03   -0.33362E-04  1216   0.166E-02    0.266E-01
RMM:   5    -0.398471132167E+03    0.23750E-03   -0.46778E-04  1216   0.218E-02    0.546E-02
RMM:   6    -0.398471120464E+03    0.11703E-04   -0.32980E-05   934   0.531E-03    0.171E-02
RMM:   7    -0.398471117884E+03    0.25798E-05   -0.39311E-06   757   0.236E-03
   31 T=  2179. E= -.25191024E+03 F= -.39847112E+03 E0= -.39844964E+03  EK= 0.27885E+02 SP= 0.12E+03 SK= 0.30E+00 mag=     -0.000
       N       E                     dE             d eps       ncg     rms          rms(c)
DAV:   1    -0.398578675105E+03   -0.10755E+00   -0.80264E-01  1568   0.313E+00    0.959E-01
RMM:   2    -0.398604388150E+03   -0.25713E-01   -0.28941E-01  1216   0.842E-01    0.443E-01
RMM:   3    -0.398603553562E+03    0.83459E-03   -0.27181E-03  1216   0.673E-02    0.348E-01
RMM:   4    -0.398603357729E+03    0.19583E-03   -0.42563E-04  1216   0.197E-02    0.218E-01
RMM:   5    -0.398603210731E+03    0.14700E-03   -0.29310E-04  1216   0.165E-02    0.554E-02
RMM:   6    -0.398603202301E+03    0.84302E-05   -0.25467E-05   896   0.466E-03
   32 T=  2275. E= -.25193948E+03 F= -.39860320E+03 E0= -.39858897E+03  EK= 0.29114E+02 SP= 0.12E+03 SK= 0.17E+00 mag=      0.000
       N       E                     dE             d eps       ncg     rms          rms(c)
DAV:   1    -0.398879752458E+03   -0.27654E+00   -0.90504E-01  1552   0.329E+00    0.104E+00
RMM:   2    -0.398907644523E+03   -0.27892E-01   -0.31466E-01  1216   0.873E-01    0.461E-01
RMM:   3    -0.398906576263E+03    0.10683E-02   -0.32413E-03  1216   0.709E-02    0.362E-01
RMM:   4    -0.398906396557E+03    0.17971E-03   -0.38421E-04  1216   0.180E-02    0.262E-01
RMM:   5    -0.398906194847E+03    0.20171E-03   -0.41836E-04  1216   0.201E-02    0.624E-02
RMM:   6    -0.398906190351E+03    0.44959E-05   -0.31188E-05   920   0.542E-03
   33 T=  2358. E= -.25198071E+03 F= -.39890619E+03 E0= -.39889223E+03  EK= 0.30173E+02 SP= 0.12E+03 SK= 0.55E-01 mag=     -0.000
       N       E                     dE             d eps       ncg     rms          rms(c)
DAV:   1    -0.398862030573E+03    0.44164E-01   -0.88542E-01  1488   0.339E+00    0.108E+00
RMM:   2    -0.398892457651E+03   -0.30427E-01   -0.33662E-01  1216   0.893E-01    0.497E-01
RMM:   3    -0.398891349776E+03    0.11079E-02   -0.35651E-03  1216   0.728E-02    0.393E-01
RMM:   4    -0.398891158192E+03    0.19158E-03   -0.43930E-04  1217   0.190E-02    0.278E-01
RMM:   5    -0.398890949423E+03    0.20877E-03   -0.42189E-04  1216   0.198E-02    0.756E-02
RMM:   6    -0.398890943071E+03    0.63520E-05   -0.38162E-05   952   0.577E-03
   34 T=  2380. E= -.25200697E+03 F= -.39889094E+03 E0= -.39887164E+03  EK= 0.30456E+02 SP= 0.12E+03 SK= 0.50E-03 mag=      0.000
       N       E                     dE             d eps       ncg     rms          rms(c)
DAV:   1    -0.398233455152E+03    0.65749E+00   -0.82006E-01  1552   0.336E+00    0.106E+00
RMM:   2    -0.398264724896E+03   -0.31270E-01   -0.34382E-01  1216   0.906E-01    0.540E-01
RMM:   3    -0.398263643038E+03    0.10819E-02   -0.31033E-03  1216   0.724E-02    0.431E-01
RMM:   4    -0.398263433861E+03    0.20918E-03   -0.44726E-04  1216   0.199E-02    0.286E-01
RMM:   5    -0.398263245451E+03    0.18841E-03   -0.37229E-04  1216   0.183E-02    0.774E-02
RMM:   6    -0.398263238754E+03    0.66971E-05   -0.38269E-05   962   0.569E-03
   35 T=  2316. E= -.25199434E+03 F= -.39826324E+03 E0= -.39824124E+03  EK= 0.29643E+02 SP= 0.12E+03 SK= 0.33E-01 mag=      0.000
       N       E                     dE             d eps       ncg     rms          rms(c)
DAV:   1    -0.397203346773E+03    0.10599E+01   -0.74261E-01  1472   0.326E+00    0.103E+00
RMM:   2    -0.397235426691E+03   -0.32080E-01   -0.35096E-01  1216   0.914E-01    0.558E-01
RMM:   3    -0.397234231386E+03    0.11953E-02   -0.37533E-03  1216   0.745E-02    0.445E-01
RMM:   4    -0.397234040540E+03    0.19085E-03   -0.41205E-04  1216   0.184E-02    0.335E-01
RMM:   5    -0.397233748297E+03    0.29224E-03   -0.52919E-04  1216   0.223E-02    0.860E-02
RMM:   6    -0.397233736739E+03    0.11558E-04   -0.51219E-05  1038   0.668E-03    0.189E-02
RMM:   7    -0.397233735017E+03    0.17222E-05   -0.37481E-06   765   0.235E-03
   36 T=  2192. E= -.25194825E+03 F= -.39723374E+03 E0= -.39721085E+03  EK= 0.28051E+02 SP= 0.12E+03 SK= 0.11E+00 mag=      0.000
       N       E                     dE             d eps       ncg     rms          rms(c)
DAV:   1    -0.396395379889E+03    0.83836E+00   -0.71712E-01  1504   0.312E+00    0.988E-01
RMM:   2    -0.396426225016E+03   -0.30845E-01   -0.34252E-01  1216   0.900E-01    0.519E-01
RMM:   3    -0.396425199721E+03    0.10253E-02   -0.41283E-03  1216   0.755E-02    0.409E-01
RMM:   4    -0.396425022106E+03    0.17762E-03   -0.45885E-04  1218   0.189E-02    0.305E-01
RMM:   5    -0.396424743068E+03    0.27904E-03   -0.47273E-04  1216   0.211E-02    0.794E-02
RMM:   6    -0.396424729605E+03    0.13462E-04   -0.47987E-05  1020   0.636E-03    0.188E-02
RMM:   7    -0.396424727120E+03    0.24858E-05   -0.36776E-06   770   0.230E-03
   37 T=  2067. E= -.25190985E+03 F= -.39642473E+03 E0= -.39639626E+03  EK= 0.26456E+02 SP= 0.12E+03 SK= 0.16E+00 mag=      0.000
       N       E                     dE             d eps       ncg     rms          rms(c)
DAV:   1    -0.396308138767E+03    0.11659E+00   -0.71864E-01  1552   0.300E+00    0.911E-01
RMM:   2    -0.396336403351E+03   -0.28265E-01   -0.30950E-01  1216   0.855E-01    0.460E-01
RMM:   3    -0.396335651857E+03    0.75149E-03   -0.36835E-03  1216   0.723E-02    0.364E-01
RMM:   4    -0.396335520803E+03    0.13105E-03   -0.37788E-04  1218   0.177E-02    0.272E-01
RMM:   5    -0.396335313260E+03    0.20754E-03   -0.37901E-04  1216   0.188E-02    0.700E-02
RMM:   6    -0.396335302128E+03    0.11133E-04   -0.37786E-05   956   0.564E-03    0.174E-02
RMM:   7    -0.396335299898E+03    0.22299E-05   -0.37641E-06   764   0.231E-03
   38 T=  1991. E= -.25190753E+03 F= -.39633530E+03 E0= -.39629853E+03  EK= 0.25482E+02 SP= 0.12E+03 SK= 0.18E+00 mag=      0.000
       N       E                     dE             d eps       ncg     rms          rms(c)
DAV:   1    -0.396922187436E+03   -0.58689E+00   -0.74246E-01  1424   0.300E+00    0.926E-01
RMM:   2    -0.396947344158E+03   -0.25157E-01   -0.28675E-01  1216   0.830E-01    0.446E-01
RMM:   3    -0.396946360849E+03    0.98331E-03   -0.29192E-03  1216   0.681E-02    0.347E-01
RMM:   4    -0.396946202648E+03    0.15820E-03   -0.36172E-04  1216   0.177E-02    0.249E-01
RMM:   5    -0.396946011118E+03    0.19153E-03   -0.37552E-04  1216   0.186E-02    0.642E-02
RMM:   6    -0.396945997453E+03    0.13665E-04   -0.39545E-05   982   0.556E-03    0.197E-02
RMM:   7    -0.396945995765E+03    0.16874E-05   -0.39384E-06   747   0.232E-03
   39 T=  1968. E= -.25193032E+03 F= -.39694600E+03 E0= -.39690664E+03  EK= 0.25186E+02 SP= 0.12E+03 SK= 0.18E+00 mag=      0.000
       N       E                     dE             d eps       ncg     rms          rms(c)
DAV:   1    -0.397832402506E+03   -0.88641E+00   -0.71916E-01  1456   0.307E+00    0.984E-01
RMM:   2    -0.397858003192E+03   -0.25601E-01   -0.29701E-01  1216   0.830E-01    0.463E-01
RMM:   3    -0.397856456399E+03    0.15468E-02   -0.44649E-03  1216   0.728E-02    0.360E-01
RMM:   4    -0.397856218021E+03    0.23838E-03   -0.43268E-04  1216   0.177E-02    0.288E-01
RMM:   5    -0.397855965548E+03    0.25247E-03   -0.53006E-04  1216   0.229E-02    0.688E-02
RMM:   6    -0.397855953068E+03    0.12480E-04   -0.49254E-05   988   0.626E-03    0.220E-02
RMM:   7    -0.397855951267E+03    0.18010E-05   -0.47892E-06   768   0.257E-03
   40 T=  1969. E= -.25195567E+03 F= -.39785595E+03 E0= -.39781856E+03  EK= 0.25198E+02 SP= 0.12E+03 SK= 0.17E+00 mag=      0.000
       N       E                     dE             d eps       ncg     rms          rms(c)
DAV:   1    -0.398596067505E+03   -0.74011E+00   -0.81145E-01  1584   0.317E+00    0.103E+00
RMM:   2    -0.398621148404E+03   -0.25081E-01   -0.30155E-01  1216   0.845E-01    0.467E-01
RMM:   3    -0.398619489607E+03    0.16588E-02   -0.39787E-03  1216   0.737E-02    0.364E-01
RMM:   4    -0.398619246906E+03    0.24270E-03   -0.38386E-04  1216   0.175E-02    0.292E-01
RMM:   5    -0.398619037009E+03    0.20990E-03   -0.47191E-04  1216   0.215E-02    0.803E-02
RMM:   6    -0.398619010589E+03    0.26420E-04   -0.76214E-05  1052   0.738E-03    0.235E-02
RMM:   7    -0.398619009280E+03    0.13094E-05   -0.53480E-06   766   0.263E-03
   41 T=  1961. E= -.25196672E+03 F= -.39861901E+03 E0= -.39857802E+03  EK= 0.25088E+02 SP= 0.12E+03 SK= 0.17E+00 mag=     -0.000
       N       E                     dE             d eps       ncg     rms          rms(c)
DAV:   1    -0.398972385386E+03   -0.35337E+00   -0.10470E+00  1536   0.325E+00    0.107E+00
RMM:   2    -0.398996903031E+03   -0.24518E-01   -0.31290E-01  1216   0.843E-01    0.490E-01
RMM:   3    -0.398993681351E+03    0.32217E-02   -0.55596E-03  1216   0.776E-02    0.384E-01
RMM:   4    -0.398993222422E+03    0.45893E-03   -0.43715E-04  1216   0.183E-02    0.309E-01
RMM:   5    -0.398993015500E+03    0.20692E-03   -0.50945E-04  1216   0.224E-02    0.966E-02
RMM:   6    -0.398992970103E+03    0.45397E-04   -0.11884E-04  1099   0.909E-03    0.252E-02
RMM:   7    -0.398992968640E+03    0.14628E-05   -0.62979E-06   791   0.276E-03
   42 T=  1925. E= -.25196362E+03 F= -.39899297E+03 E0= -.39894652E+03  EK= 0.24635E+02 SP= 0.12E+03 SK= 0.16E+00 mag=     -0.001
       N       E                     dE             d eps       ncg     rms          rms(c)
DAV:   1    -0.398939605726E+03    0.53364E-01   -0.93472E-01  1568   0.325E+00    0.112E+00
RMM:   2    -0.398957858399E+03   -0.18253E-01   -0.31158E-01  1216   0.843E-01    0.551E-01
RMM:   3    -0.398955332006E+03    0.25264E-02   -0.48020E-03  1216   0.775E-02    0.420E-01
RMM:   4    -0.398954896748E+03    0.43526E-03   -0.63212E-04  1216   0.220E-02    0.319E-01
RMM:   5    -0.398954503363E+03    0.39338E-03   -0.69858E-04  1216   0.271E-02    0.739E-02
RMM:   6    -0.398954468557E+03    0.34806E-04   -0.98683E-05  1055   0.853E-03    0.197E-02
RMM:   7    -0.398954465551E+03    0.30064E-05   -0.63709E-06   781   0.286E-03
   43 T=  1864. E= -.25195625E+03 F= -.39895447E+03 E0= -.39891765E+03  EK= 0.23853E+02 SP= 0.12E+03 SK= 0.12E+00 mag=     -0.000
       N       E                     dE             d eps       ncg     rms          rms(c)
DAV:   1    -0.398635362481E+03    0.31911E+00   -0.81920E-01  1520   0.323E+00    0.106E+00
RMM:   2    -0.398657250206E+03   -0.21888E-01   -0.31317E-01  1216   0.844E-01    0.543E-01
RMM:   3    -0.398654854304E+03    0.23959E-02   -0.43115E-03  1216   0.750E-02    0.422E-01
RMM:   4    -0.398654538906E+03    0.31540E-03   -0.44169E-04  1216   0.185E-02    0.335E-01
RMM:   5    -0.398654206736E+03    0.33217E-03   -0.63350E-04  1216   0.257E-02    0.716E-02
RMM:   6    -0.398654183414E+03    0.23322E-04   -0.71339E-05  1054   0.738E-03    0.188E-02
RMM:   7    -0.398654180309E+03    0.31054E-05   -0.51414E-06   776   0.255E-03
   44 T=  1795. E= -.25192981E+03 F= -.39865418E+03 E0= -.39862399E+03  EK= 0.22973E+02 SP= 0.12E+03 SK= 0.75E-01 mag=      0.000
       N       E                     dE             d eps       ncg     rms          rms(c)
DAV:   1    -0.398478743040E+03    0.17544E+00   -0.69277E-01  1456   0.322E+00    0.103E+00
RMM:   2    -0.398503093757E+03   -0.24351E-01   -0.31548E-01  1216   0.850E-01    0.524E-01
RMM:   3    -0.398501189439E+03    0.19043E-02   -0.39471E-03  1216   0.736E-02    0.406E-01
RMM:   4    -0.398500903126E+03    0.28631E-03   -0.46291E-04  1216   0.188E-02    0.314E-01
RMM:   5    -0.398500540758E+03    0.36237E-03   -0.68611E-04  1216   0.262E-02    0.674E-02
RMM:   6    -0.398500522872E+03    0.17886E-04   -0.58357E-05  1040   0.686E-03    0.196E-02
RMM:   7    -0.398500519291E+03    0.35804E-05   -0.44370E-06   760   0.241E-03
   45 T=  1753. E= -.25190904E+03 F= -.39850052E+03 E0= -.39847912E+03  EK= 0.22431E+02 SP= 0.12E+03 SK= 0.27E-01 mag=      0.000
       N       E                     dE             d eps       ncg     rms          rms(c)
DAV:   1    -0.398779312354E+03   -0.27879E+00   -0.59679E-01  1456   0.319E+00    0.947E-01
RMM:   2    -0.398804782226E+03   -0.25470E-01   -0.28537E-01  1216   0.810E-01    0.463E-01
RMM:   3    -0.398803678973E+03    0.11033E-02   -0.33048E-03  1216   0.678E-02    0.364E-01
RMM:   4    -0.398803484870E+03    0.19410E-03   -0.36550E-04  1216   0.169E-02    0.273E-01
RMM:   5    -0.398803230949E+03    0.25392E-03   -0.49317E-04  1216   0.216E-02    0.673E-02
RMM:   6    -0.398803220429E+03    0.10520E-04   -0.37044E-05   950   0.577E-03    0.183E-02
RMM:   7    -0.398803217992E+03    0.24368E-05   -0.35207E-06   753   0.231E-03
   46 T=  1760. E= -.25192515E+03 F= -.39880322E+03 E0= -.39878940E+03  EK= 0.22527E+02 SP= 0.12E+03 SK= 0.18E-02 mag=     -0.000
       N       E                     dE             d eps       ncg     rms          rms(c)
DAV:   1    -0.399337665561E+03   -0.53445E+00   -0.63236E-01  1600   0.320E+00    0.912E-01
RMM:   2    -0.399361799004E+03   -0.24133E-01   -0.26307E-01  1216   0.783E-01    0.435E-01
RMM:   3    -0.399361012271E+03    0.78673E-03   -0.25124E-03  1216   0.640E-02    0.344E-01
RMM:   4    -0.399360850643E+03    0.16163E-03   -0.34587E-04  1216   0.171E-02    0.239E-01
RMM:   5    -0.399360674452E+03    0.17619E-03   -0.34142E-04  1216   0.177E-02    0.638E-02
RMM:   6    -0.399360668657E+03    0.57950E-05   -0.27665E-05   905   0.507E-03
   47 T=  1803. E= -.25195573E+03 F= -.39936067E+03 E0= -.39934489E+03  EK= 0.23072E+02 SP= 0.12E+03 SK= 0.38E-02 mag=     -0.000
       N       E                     dE             d eps       ncg     rms          rms(c)
DAV:   1    -0.399726517047E+03   -0.36584E+00   -0.67337E-01  1520   0.326E+00    0.996E-01
RMM:   2    -0.399752438979E+03   -0.25922E-01   -0.29808E-01  1216   0.823E-01    0.479E-01
RMM:   3    -0.399751079030E+03    0.13599E-02   -0.36322E-03  1216   0.706E-02    0.378E-01
RMM:   4    -0.399750888112E+03    0.19092E-03   -0.33963E-04  1216   0.164E-02    0.302E-01
RMM:   5    -0.399750640301E+03    0.24781E-03   -0.51966E-04  1216   0.225E-02    0.753E-02
RMM:   6    -0.399750625619E+03    0.14681E-04   -0.55528E-05  1032   0.658E-03    0.225E-02
RMM:   7    -0.399750624417E+03    0.12022E-05   -0.48562E-06   765   0.257E-03
   48 T=  1848. E= -.25196361E+03 F= -.39975062E+03 E0= -.39972236E+03  EK= 0.23648E+02 SP= 0.12E+03 SK= 0.19E-01 mag=      0.000
       N       E                     dE             d eps       ncg     rms          rms(c)
DAV:   1    -0.399798781137E+03   -0.48156E-01   -0.79871E-01  1488   0.327E+00    0.101E+00
RMM:   2    -0.399825838986E+03   -0.27058E-01   -0.30895E-01  1216   0.848E-01    0.513E-01
RMM:   3    -0.399824548735E+03    0.12903E-02   -0.31029E-03  1216   0.705E-02    0.401E-01
RMM:   4    -0.399824343537E+03    0.20520E-03   -0.41895E-04  1216   0.187E-02    0.297E-01
RMM:   5    -0.399824063343E+03    0.28019E-03   -0.54776E-04  1216   0.227E-02    0.707E-02
RMM:   6    -0.399824052362E+03    0.10981E-04   -0.44521E-05   981   0.605E-03    0.216E-02
RMM:   7    -0.399824050602E+03    0.17593E-05   -0.50421E-06   743   0.257E-03
   49 T=  1880. E= -.25195640E+03 F= -.39982405E+03 E0= -.39978839E+03  EK= 0.24061E+02 SP= 0.12E+03 SK= 0.39E-01 mag=      0.000
       N       E                     dE             d eps       ncg     rms          rms(c)
DAV:   1    -0.399668007614E+03    0.15604E+00   -0.78885E-01  1552   0.326E+00    0.103E+00
RMM:   2    -0.399693247140E+03   -0.25240E-01   -0.31719E-01  1216   0.846E-01    0.530E-01
RMM:   3    -0.399691478476E+03    0.17687E-02   -0.42309E-03  1216   0.744E-02    0.413E-01
RMM:   4    -0.399691229066E+03    0.24941E-03   -0.46058E-04  1216   0.191E-02    0.316E-01
RMM:   5    -0.399690918682E+03    0.31038E-03   -0.62796E-04  1216   0.247E-02    0.754E-02
RMM:   6    -0.399690897306E+03    0.21376E-04   -0.67235E-05  1052   0.705E-03    0.211E-02
RMM:   7    -0.399690895374E+03    0.19323E-05   -0.46657E-06   774   0.251E-03
   50 T=  1905. E= -.25194411E+03 F= -.39969090E+03 E0= -.39965808E+03  EK= 0.24378E+02 SP= 0.12E+03 SK= 0.58E-01 mag=      0.000
       N       E                     dE             d eps       ncg     rms          rms(c)
DAV:   1    -0.399547349250E+03    0.14355E+00   -0.83481E-01  1536   0.327E+00    0.106E+00
RMM:   2    -0.399573692414E+03   -0.26343E-01   -0.32461E-01  1216   0.873E-01    0.518E-01
RMM:   3    -0.399572192440E+03    0.15000E-02   -0.35794E-03  1216   0.739E-02    0.403E-01
RMM:   4    -0.399571948209E+03    0.24423E-03   -0.46740E-04  1216   0.197E-02    0.296E-01
RMM:   5    -0.399571638069E+03    0.31014E-03   -0.56325E-04  1216   0.235E-02    0.682E-02
RMM:   6    -0.399571623440E+03    0.14629E-04   -0.50002E-05  1014   0.643E-03    0.187E-02
RMM:   7    -0.399571621002E+03    0.24382E-05   -0.48132E-06   758   0.251E-03
   51 T=  1937. E= -.25193143E+03 F= -.39957162E+03 E0= -.39953964E+03  EK= 0.24792E+02 SP= 0.12E+03 SK= 0.74E-01 mag=      0.000
       N       E                     dE             d eps       ncg     rms          rms(c)
DAV:   1    -0.399694193817E+03   -0.12257E+00   -0.89202E-01  1472   0.333E+00    0.110E+00
RMM:   2    -0.399722213988E+03   -0.28020E-01   -0.34709E-01  1216   0.901E-01    0.534E-01
RMM:   3    -0.399720735543E+03    0.14784E-02   -0.36994E-03  1216   0.753E-02    0.414E-01
RMM:   4    -0.399720454933E+03    0.28061E-03   -0.56651E-04  1216   0.222E-02    0.271E-01
RMM:   5    -0.399720198655E+03    0.25628E-03   -0.48397E-04  1216   0.211E-02    0.687E-02
RMM:   6    -0.399720177417E+03    0.21238E-04   -0.47304E-05   992   0.602E-03    0.215E-02
RMM:   7    -0.399720175099E+03    0.23180E-05   -0.49672E-06   761   0.260E-03
   52 T=  1994. E= -.25192184E+03 F= -.39972018E+03 E0= -.39968397E+03  EK= 0.25522E+02 SP= 0.12E+03 SK= 0.78E-01 mag=      0.000
       N       E                     dE             d eps       ncg     rms          rms(c)
DAV:   1    -0.400281945547E+03   -0.56177E+00   -0.94048E-01  1472   0.342E+00    0.114E+00
RMM:   2    -0.400311367573E+03   -0.29422E-01   -0.37023E-01  1216   0.932E-01    0.565E-01
RMM:   3    -0.400309660082E+03    0.17075E-02   -0.40167E-03  1216   0.784E-02    0.435E-01
RMM:   4    -0.400309318211E+03    0.34187E-03   -0.68901E-04  1216   0.242E-02    0.282E-01
RMM:   5    -0.400309005727E+03    0.31248E-03   -0.59210E-04  1216   0.235E-02    0.643E-02
RMM:   6    -0.400308988311E+03    0.17416E-04   -0.46094E-05   986   0.612E-03    0.196E-02
RMM:   7    -0.400308985920E+03    0.23904E-05   -0.51926E-06   761   0.262E-03
   53 T=  2084. E= -.25193441E+03 F= -.40030899E+03 E0= -.40027948E+03  EK= 0.26667E+02 SP= 0.12E+03 SK= 0.62E-01 mag=      0.000
       N       E                     dE             d eps       ncg     rms          rms(c)
DAV:   1    -0.401183513903E+03   -0.87453E+00   -0.83559E-01  1344   0.354E+00    0.119E+00
RMM:   2    -0.401213579903E+03   -0.30066E-01   -0.38505E-01  1216   0.953E-01    0.560E-01
RMM:   3    -0.401211707997E+03    0.18719E-02   -0.44199E-03  1216   0.800E-02    0.429E-01
RMM:   4    -0.401211367759E+03    0.34024E-03   -0.65910E-04  1216   0.227E-02    0.306E-01
RMM:   5    -0.401210995295E+03    0.37246E-03   -0.69275E-04  1216   0.262E-02    0.679E-02
RMM:   6    -0.401210979556E+03    0.15739E-04   -0.57260E-05  1032   0.675E-03    0.206E-02
RMM:   7    -0.401210977095E+03    0.24607E-05   -0.49818E-06   769   0.255E-03
   54 T=  2188. E= -.25196932E+03 F= -.40121098E+03 E0= -.40118866E+03  EK= 0.28003E+02 SP= 0.12E+03 SK= 0.27E-01 mag=     -0.000
       N       E                     dE             d eps       ncg     rms          rms(c)
DAV:   1    -0.401948844201E+03   -0.73786E+00   -0.88695E-01  1456   0.367E+00    0.123E+00
RMM:   2    -0.401983626970E+03   -0.34783E-01   -0.39810E-01  1216   0.978E-01    0.521E-01
RMM:   3    -0.401982315407E+03    0.13116E-02   -0.42777E-03  1216   0.796E-02    0.406E-01
RMM:   4    -0.401981987392E+03    0.32801E-03   -0.75462E-04  1216   0.260E-02    0.227E-01
RMM:   5    -0.401981825796E+03    0.16160E-03   -0.35927E-04  1216   0.176E-02    0.662E-02
RMM:   6    -0.401981815036E+03    0.10759E-04   -0.33074E-05   941   0.517E-03    0.207E-02
RMM:   7    -0.401981814269E+03    0.76715E-06   -0.40379E-06   761   0.238E-03
   55 T=  2263. E= -.25201140E+03 F= -.40198181E+03 E0= -.40196132E+03  EK= 0.28958E+02 SP= 0.12E+03 SK= 0.73E-03 mag=     -0.000
       N       E                     dE             d eps       ncg     rms          rms(c)
DAV:   1    -0.402039211245E+03   -0.57396E-01   -0.94292E-01  1520   0.375E+00    0.126E+00
RMM:   2    -0.402075170254E+03   -0.35959E-01   -0.41555E-01  1216   0.100E+00    0.554E-01
RMM:   3    -0.402073744196E+03    0.14261E-02   -0.43514E-03  1216   0.807E-02    0.436E-01
RMM:   4    -0.402073514599E+03    0.22960E-03   -0.54105E-04  1216   0.205E-02    0.316E-01
RMM:   5    -0.402073234595E+03    0.28000E-03   -0.58065E-04  1216   0.235E-02    0.738E-02
RMM:   6    -0.402073226480E+03    0.81143E-05   -0.47187E-05  1006   0.648E-03
   56 T=  2258. E= -.25203108E+03 F= -.40207323E+03 E0= -.40205557E+03  EK= 0.28901E+02 SP= 0.12E+03 SK= 0.18E-01 mag=     -0.000
       N       E                     dE             d eps       ncg     rms          rms(c)
DAV:   1    -0.401250525238E+03    0.82271E+00   -0.84477E-01  1440   0.374E+00    0.127E+00
RMM:   2    -0.401288436061E+03   -0.37911E-01   -0.44153E-01  1216   0.102E+00    0.623E-01
RMM:   3    -0.401287113724E+03    0.13223E-02   -0.51110E-03  1216   0.838E-02    0.491E-01
RMM:   4    -0.401286783561E+03    0.33016E-03   -0.81315E-04  1216   0.263E-02    0.287E-01
RMM:   5    -0.401286547871E+03    0.23569E-03   -0.46068E-04  1216   0.200E-02    0.748E-02
RMM:   6    -0.401286534969E+03    0.12903E-04   -0.46496E-05   990   0.599E-03    0.201E-02
RMM:   7    -0.401286533519E+03    0.14499E-05   -0.44467E-06   771   0.245E-03
   57 T=  2163. E= -.25199044E+03 F= -.40128653E+03 E0= -.40126927E+03  EK= 0.27683E+02 SP= 0.12E+03 SK= 0.71E-01 mag=     -0.000
       N       E                     dE             d eps       ncg     rms          rms(c)
DAV:   1    -0.400199460487E+03    0.10871E+01   -0.93241E-01  1472   0.365E+00    0.123E+00
RMM:   2    -0.400239261607E+03   -0.39801E-01   -0.44987E-01  1216   0.105E+00    0.651E-01
RMM:   3    -0.400238091920E+03    0.11697E-02   -0.43165E-03  1216   0.826E-02    0.516E-01
RMM:   4    -0.400237798485E+03    0.29343E-03   -0.71739E-04  1217   0.247E-02    0.310E-01
RMM:   5    -0.400237515198E+03    0.28329E-03   -0.45287E-04  1216   0.200E-02    0.753E-02
RMM:   6    -0.400237499807E+03    0.15391E-04   -0.43825E-05  1000   0.596E-03    0.187E-02
RMM:   7    -0.400237496869E+03    0.29376E-05   -0.41660E-06   763   0.236E-03
   58 T=  2035. E= -.25191196E+03 F= -.40023750E+03 E0= -.40021585E+03  EK= 0.26046E+02 SP= 0.12E+03 SK= 0.11E+00 mag=     -0.000
       N       E                     dE             d eps       ncg     rms          rms(c)
DAV:   1    -0.399969546033E+03    0.26795E+00   -0.96359E-01  1408   0.350E+00    0.117E+00
RMM:   2    -0.400008229033E+03   -0.38683E-01   -0.44185E-01  1216   0.102E+00    0.598E-01
RMM:   3    -0.400006814075E+03    0.14150E-02   -0.51954E-03  1216   0.858E-02    0.472E-01
RMM:   4    -0.400006582344E+03    0.23173E-03   -0.55781E-04  1216   0.208E-02    0.353E-01
RMM:   5    -0.400006222408E+03    0.35994E-03   -0.64704E-04  1216   0.248E-02    0.810E-02
RMM:   6    -0.400006194664E+03    0.27744E-04   -0.63825E-05  1040   0.686E-03    0.264E-02
RMM:   7    -0.400006189668E+03    0.49960E-05   -0.55355E-06   785   0.261E-03
   59 T=  1965. E= -.25187554E+03 F= -.40000619E+03 E0= -.39996981E+03  EK= 0.25147E+02 SP= 0.12E+03 SK= 0.11E+00 mag=      0.000
       N       E                     dE             d eps       ncg     rms          rms(c)
DAV:   1    -0.401004979051E+03   -0.99878E+00   -0.10578E+00  1504   0.341E+00    0.112E+00
RMM:   2    -0.401037936878E+03   -0.32958E-01   -0.39931E-01  1216   0.968E-01    0.521E-01
RMM:   3    -0.401036442452E+03    0.14944E-02   -0.44833E-03  1216   0.828E-02    0.407E-01
RMM:   4    -0.401036208434E+03    0.23402E-03   -0.50654E-04  1216   0.202E-02    0.302E-01
RMM:   5    -0.401035926094E+03    0.28234E-03   -0.54267E-04  1216   0.228E-02    0.786E-02
RMM:   6    -0.401035897650E+03    0.28444E-04   -0.67774E-05  1052   0.700E-03    0.248E-02
RMM:   7    -0.401035893886E+03    0.37640E-05   -0.54586E-06   783   0.256E-03
   60 T=  1988. E= -.25191530E+03 F= -.40103589E+03 E0= -.40099467E+03  EK= 0.25442E+02 SP= 0.12E+03 SK= 0.11E+00 mag=      0.000
       N       E                     dE             d eps       ncg     rms          rms(c)
DAV:   1    -0.402669482072E+03   -0.16336E+01   -0.10662E+00  1552   0.350E+00    0.119E+00
RMM:   2    -0.402701205394E+03   -0.31723E-01   -0.39037E-01  1216   0.958E-01    0.512E-01
RMM:   3    -0.402699663556E+03    0.15418E-02   -0.46715E-03  1216   0.826E-02    0.397E-01
RMM:   4    -0.402699400047E+03    0.26351E-03   -0.56739E-04  1216   0.207E-02    0.299E-01
RMM:   5    -0.402699083026E+03    0.31702E-03   -0.59510E-04  1216   0.243E-02    0.771E-02
RMM:   6    -0.402699061400E+03    0.21626E-04   -0.70256E-05  1054   0.733E-03    0.244E-02
RMM:   7    -0.402699058947E+03    0.24532E-05   -0.62127E-06   791   0.271E-03
   61 T=  2056. E= -.25197411E+03 F= -.40269906E+03 E0= -.40266303E+03  EK= 0.26310E+02 SP= 0.12E+03 SK= 0.13E+00 mag=      0.000
       N       E                     dE             d eps       ncg     rms          rms(c)
DAV:   1    -0.403989655767E+03   -0.12906E+01   -0.10086E+00  1440   0.364E+00    0.126E+00
RMM:   2    -0.404024147930E+03   -0.34492E-01   -0.41429E-01  1216   0.988E-01    0.534E-01
RMM:   3    -0.404022689690E+03    0.14582E-02   -0.51744E-03  1216   0.852E-02    0.411E-01
RMM:   4    -0.404022423673E+03    0.26602E-03   -0.76794E-04  1216   0.246E-02    0.271E-01
RMM:   5    -0.404022143956E+03    0.27972E-03   -0.48975E-04  1216   0.213E-02    0.774E-02
RMM:   6    -0.404022133969E+03    0.99874E-05   -0.51226E-05  1031   0.657E-03
   62 T=  2090. E= -.25200503E+03 F= -.40402213E+03 E0= -.40398968E+03  EK= 0.26750E+02 SP= 0.13E+03 SK= 0.17E+00 mag=      0.000
       N       E                     dE             d eps       ncg     rms          rms(c)
DAV:   1    -0.404392023124E+03   -0.36988E+00   -0.80970E-01  1456   0.368E+00    0.119E+00
RMM:   2    -0.404428838397E+03   -0.36815E-01   -0.40808E-01  1216   0.976E-01    0.552E-01
RMM:   3    -0.404427766745E+03    0.10717E-02   -0.49376E-03  1216   0.815E-02    0.433E-01
RMM:   4    -0.404427563246E+03    0.20350E-03   -0.66595E-04  1216   0.227E-02    0.288E-01
RMM:   5    -0.404427317387E+03    0.24586E-03   -0.45454E-04  1216   0.202E-02    0.798E-02
RMM:   6    -0.404427310595E+03    0.67925E-05   -0.47261E-05  1008   0.619E-03
   63 T=  2047. E= -.25199045E+03 F= -.40442731E+03 E0= -.40439688E+03  EK= 0.26191E+02 SP= 0.13E+03 SK= 0.22E+00 mag=      0.000
       N       E                     dE             d eps       ncg     rms          rms(c)
DAV:   1    -0.403959645921E+03    0.46767E+00   -0.80686E-01  1568   0.357E+00    0.105E+00
RMM:   2    -0.403995150802E+03   -0.35505E-01   -0.38162E-01  1216   0.948E-01    0.550E-01
RMM:   3    -0.403994355788E+03    0.79501E-03   -0.35889E-03  1216   0.756E-02    0.442E-01
RMM:   4    -0.403994087828E+03    0.26796E-03   -0.62526E-04  1216   0.242E-02    0.230E-01
RMM:   5    -0.403993965103E+03    0.12273E-03   -0.25350E-04  1216   0.145E-02    0.699E-02
RMM:   6    -0.403993955291E+03    0.98118E-05   -0.28987E-05   919   0.486E-03
   64 T=  1937. E= -.25194833E+03 F= -.40399396E+03 E0= -.40396991E+03  EK= 0.24785E+02 SP= 0.13E+03 SK= 0.24E+00 mag=     -0.000
       N       E                     dE             d eps       ncg     rms          rms(c)
DAV:   1    -0.403210097820E+03    0.78387E+00   -0.72610E-01  1456   0.339E+00    0.101E+00
RMM:   2    -0.403242666810E+03   -0.32569E-01   -0.35637E-01  1216   0.914E-01    0.503E-01
RMM:   3    -0.403241682137E+03    0.98467E-03   -0.37067E-03  1216   0.743E-02    0.399E-01
RMM:   4    -0.403241497118E+03    0.18502E-03   -0.41820E-04  1216   0.185E-02    0.282E-01
RMM:   5    -0.403241256372E+03    0.24075E-03   -0.42550E-04  1216   0.198E-02    0.730E-02
RMM:   6    -0.403241242714E+03    0.13657E-04   -0.40342E-05   989   0.594E-03    0.162E-02
RMM:   7    -0.403241240438E+03    0.22765E-05   -0.32885E-06   755   0.227E-03
   65 T=  1810. E= -.25190785E+03 F= -.40324124E+03 E0= -.40321930E+03  EK= 0.23165E+02 SP= 0.13E+03 SK= 0.19E+00 mag=     -0.000
       N       E                     dE             d eps       ncg     rms          rms(c)
DAV:   1    -0.402671601807E+03    0.56964E+00   -0.64162E-01  1504   0.322E+00    0.956E-01
RMM:   2    -0.402701638981E+03   -0.30037E-01   -0.32847E-01  1216   0.864E-01    0.459E-01
RMM:   3    -0.402700733441E+03    0.90554E-03   -0.39376E-03  1216   0.734E-02    0.363E-01
RMM:   4    -0.402700559555E+03    0.17389E-03   -0.41019E-04  1216   0.182E-02    0.255E-01
RMM:   5    -0.402700355569E+03    0.20399E-03   -0.38101E-04  1216   0.186E-02    0.692E-02
RMM:   6    -0.402700341722E+03    0.13847E-04   -0.35818E-05   959   0.550E-03    0.186E-02
RMM:   7    -0.402700339403E+03    0.23188E-05   -0.31473E-06   756   0.220E-03
   66 T=  1715. E= -.25189195E+03 F= -.40270034E+03 E0= -.40267723E+03  EK= 0.21949E+02 SP= 0.13E+03 SK= 0.99E-01 mag=      0.000
       N       E                     dE             d eps       ncg     rms          rms(c)
DAV:   1    -0.402549938143E+03    0.15040E+00   -0.59404E-01  1616   0.310E+00    0.886E-01
RMM:   2    -0.402576741246E+03   -0.26803E-01   -0.28597E-01  1216   0.811E-01    0.424E-01
RMM:   3    -0.402576045188E+03    0.69606E-03   -0.28749E-03  1216   0.674E-02    0.339E-01
RMM:   4    -0.402575891742E+03    0.15345E-03   -0.35214E-04  1216   0.172E-02    0.231E-01
RMM:   5    -0.402575740389E+03    0.15135E-03   -0.26544E-04  1216   0.154E-02    0.718E-02
RMM:   6    -0.402575730910E+03    0.94790E-05   -0.31113E-05   940   0.514E-03
   67 T=  1672. E= -.25189556E+03 F= -.40257573E+03 E0= -.40255126E+03  EK= 0.21398E+02 SP= 0.13E+03 SK= 0.26E-01 mag=      0.000
       N       E                     dE             d eps       ncg     rms          rms(c)
DAV:   1    -0.402759421935E+03   -0.18368E+00   -0.61592E-01  1648   0.308E+00    0.863E-01
RMM:   2    -0.402784435296E+03   -0.25013E-01   -0.26729E-01  1216   0.781E-01    0.418E-01
RMM:   3    -0.402783715978E+03    0.71932E-03   -0.30320E-03  1216   0.658E-02    0.333E-01
RMM:   4    -0.402783580128E+03    0.13585E-03   -0.33647E-04  1216   0.161E-02    0.243E-01
RMM:   5    -0.402783408411E+03    0.17172E-03   -0.30796E-04  1216   0.166E-02    0.776E-02
RMM:   6    -0.402783400009E+03    0.84015E-05   -0.38538E-05   980   0.568E-03
   68 T=  1677. E= -.25190356E+03 F= -.40278340E+03 E0= -.40275598E+03  EK= 0.21461E+02 SP= 0.13E+03 SK= 0.13E-04 mag=      0.000
       N       E                     dE             d eps       ncg     rms          rms(c)
DAV:   1    -0.403131547573E+03   -0.34814E+00   -0.71418E-01  1600   0.314E+00    0.887E-01
RMM:   2    -0.403157323549E+03   -0.25776E-01   -0.27957E-01  1216   0.787E-01    0.418E-01
RMM:   3    -0.403156523458E+03    0.80009E-03   -0.35788E-03  1216   0.690E-02    0.331E-01
RMM:   4    -0.403156385178E+03    0.13828E-03   -0.37271E-04  1217   0.164E-02    0.251E-01
RMM:   5    -0.403156188804E+03    0.19637E-03   -0.37282E-04  1216   0.184E-02    0.763E-02
RMM:   6    -0.403156182276E+03    0.65277E-05   -0.42017E-05   996   0.597E-03
   69 T=  1716. E= -.25191443E+03 F= -.40315618E+03 E0= -.40312497E+03  EK= 0.21964E+02 SP= 0.13E+03 SK= 0.24E-01 mag=     -0.000
       N       E                     dE             d eps       ncg     rms          rms(c)
DAV:   1    -0.403478238162E+03   -0.32205E+00   -0.72573E-01  1664   0.326E+00    0.891E-01
RMM:   2    -0.403502882558E+03   -0.24644E-01   -0.27513E-01  1216   0.785E-01    0.428E-01
RMM:   3    -0.403501852330E+03    0.10302E-02   -0.31870E-03  1216   0.676E-02    0.338E-01
RMM:   4    -0.403501688604E+03    0.16373E-03   -0.33947E-04  1216   0.159E-02    0.266E-01
RMM:   5    -0.403501469205E+03    0.21940E-03   -0.43363E-04  1216   0.201E-02    0.752E-02
RMM:   6    -0.403501460760E+03    0.84447E-05   -0.47864E-05  1006   0.619E-03
   70 T=  1773. E= -.25192882E+03 F= -.40350146E+03 E0= -.40346621E+03  EK= 0.22693E+02 SP= 0.13E+03 SK= 0.77E-01 mag=     -0.000
       N       E                     dE             d eps       ncg     rms          rms(c)
DAV:   1    -0.403586563409E+03   -0.85094E-01   -0.74818E-01  1664   0.338E+00    0.897E-01
RMM:   2    -0.403611551083E+03   -0.24988E-01   -0.27692E-01  1216   0.792E-01    0.441E-01
RMM:   3    -0.403610629297E+03    0.92179E-03   -0.30955E-03  1216   0.663E-02    0.348E-01
RMM:   4    -0.403610457990E+03    0.17131E-03   -0.41898E-04  1216   0.179E-02    0.247E-01
RMM:   5    -0.403610255829E+03    0.20216E-03   -0.38475E-04  1216   0.185E-02    0.709E-02
RMM:   6    -0.403610247003E+03    0.88263E-05   -0.42714E-05   988   0.576E-03
   71 T=  1829. E= -.25194056E+03 F= -.40361025E+03 E0= -.40357131E+03  EK= 0.23407E+02 SP= 0.13E+03 SK= 0.14E+00 mag=     -0.000
       N       E                     dE             d eps       ncg     rms          rms(c)
DAV:   1    -0.403317084809E+03    0.29317E+00   -0.72151E-01  1600   0.342E+00    0.944E-01
RMM:   2    -0.403342506706E+03   -0.25422E-01   -0.29342E-01  1216   0.810E-01    0.467E-01
RMM:   3    -0.403341211005E+03    0.12957E-02   -0.31044E-03  1216   0.678E-02    0.367E-01
RMM:   4    -0.403341001740E+03    0.20927E-03   -0.38219E-04  1216   0.171E-02    0.282E-01
RMM:   5    -0.403340731059E+03    0.27068E-03   -0.54737E-04  1216   0.228E-02    0.711E-02
RMM:   6    -0.403340714765E+03    0.16293E-04   -0.57496E-05  1050   0.669E-03    0.208E-02
RMM:   7    -0.403340713600E+03    0.11649E-05   -0.43765E-06   754   0.241E-03
   72 T=  1869. E= -.25194525E+03 F= -.40334071E+03 E0= -.40330037E+03  EK= 0.23921E+02 SP= 0.13E+03 SK= 0.19E+00 mag=      0.000
       N       E                     dE             d eps       ncg     rms          rms(c)
DAV:   1    -0.402670890720E+03    0.66982E+00   -0.73664E-01  1568   0.337E+00    0.961E-01
RMM:   2    -0.402695877119E+03   -0.24986E-01   -0.29627E-01  1216   0.819E-01    0.476E-01
RMM:   3    -0.402694605181E+03    0.12719E-02   -0.28742E-03  1216   0.673E-02    0.371E-01
RMM:   4    -0.402694334939E+03    0.27024E-03   -0.52731E-04  1216   0.211E-02    0.240E-01
RMM:   5    -0.402694106923E+03    0.22802E-03   -0.43349E-04  1216   0.197E-02    0.665E-02
RMM:   6    -0.402694093739E+03    0.13184E-04   -0.41075E-05   985   0.578E-03    0.195E-02
RMM:   7    -0.402694092088E+03    0.16513E-05   -0.39273E-06   743   0.233E-03
   73 T=  1891. E= -.25194156E+03 F= -.40269409E+03 E0= -.40265351E+03  EK= 0.24195E+02 SP= 0.13E+03 SK= 0.24E+00 mag=      0.001
       N       E                     dE             d eps       ncg     rms          rms(c)
DAV:   1    -0.401806625465E+03    0.88747E+00   -0.72839E-01  1568   0.328E+00    0.966E-01
RMM:   2    -0.401832082468E+03   -0.25457E-01   -0.29537E-01  1216   0.820E-01    0.478E-01
RMM:   3    -0.401830857307E+03    0.12252E-02   -0.33011E-03  1216   0.682E-02    0.374E-01
RMM:   4    -0.401830647161E+03    0.21015E-03   -0.44445E-04  1216   0.184E-02    0.274E-01
RMM:   5    -0.401830367888E+03    0.27927E-03   -0.49368E-04  1216   0.215E-02    0.725E-02
RMM:   6    -0.401830355490E+03    0.12398E-04   -0.46276E-05   999   0.632E-03    0.186E-02
RMM:   7    -0.401830353215E+03    0.22750E-05   -0.40666E-06   768   0.238E-03
   74 T=  1903. E= -.25193252E+03 F= -.40183035E+03 E0= -.40179371E+03  EK= 0.24356E+02 SP= 0.13E+03 SK= 0.28E+00 mag=      0.001
       N       E                     dE             d eps       ncg     rms          rms(c)
DAV:   1    -0.400998842621E+03    0.83151E+00   -0.74034E-01  1616   0.322E+00    0.965E-01
RMM:   2    -0.401025523809E+03   -0.26681E-01   -0.29940E-01  1216   0.833E-01    0.476E-01
RMM:   3    -0.401024484425E+03    0.10394E-02   -0.29797E-03  1216   0.678E-02    0.374E-01
RMM:   4    -0.401024264770E+03    0.21965E-03   -0.45392E-04  1216   0.197E-02    0.243E-01
RMM:   5    -0.401024071739E+03    0.19303E-03   -0.36089E-04  1216   0.178E-02    0.675E-02
RMM:   6    -0.401024059524E+03    0.12215E-04   -0.35194E-05   959   0.547E-03    0.181E-02
RMM:   7    -0.401024057614E+03    0.19099E-05   -0.34323E-06   755   0.226E-03
   75 T=  1927. E= -.25192082E+03 F= -.40102406E+03 E0= -.40099193E+03  EK= 0.24662E+02 SP= 0.12E+03 SK= 0.32E+00 mag=      0.000
       N       E                     dE             d eps       ncg     rms          rms(c)
DAV:   1    -0.400546099985E+03    0.47796E+00   -0.75596E-01  1568   0.319E+00    0.981E-01
RMM:   2    -0.400572978453E+03   -0.26878E-01   -0.30385E-01  1216   0.843E-01    0.478E-01
RMM:   3    -0.400571916740E+03    0.10617E-02   -0.28629E-03  1216   0.682E-02    0.373E-01
RMM:   4    -0.400571681912E+03    0.23483E-03   -0.52090E-04  1216   0.213E-02    0.232E-01
RMM:   5    -0.400571472100E+03    0.20981E-03   -0.35833E-04  1216   0.177E-02    0.666E-02
RMM:   6    -0.400571459627E+03    0.12473E-04   -0.34696E-05   956   0.533E-03    0.202E-02
RMM:   7    -0.400571457673E+03    0.19534E-05   -0.36562E-06   742   0.229E-03
   76 T=  1983. E= -.25192166E+03 F= -.40057146E+03 E0= -.40054182E+03  EK= 0.25381E+02 SP= 0.12E+03 SK= 0.33E+00 mag=     -0.000
       N       E                     dE             d eps       ncg     rms          rms(c)
DAV:   1    -0.400555941825E+03    0.15518E-01   -0.68936E-01  1568   0.322E+00    0.990E-01
RMM:   2    -0.400581835518E+03   -0.25894E-01   -0.31234E-01  1216   0.850E-01    0.488E-01
RMM:   3    -0.400580519444E+03    0.13161E-02   -0.34349E-03  1216   0.713E-02    0.379E-01
RMM:   4    -0.400580290828E+03    0.22862E-03   -0.46030E-04  1216   0.192E-02    0.273E-01
RMM:   5    -0.400580028497E+03    0.26233E-03   -0.49611E-04  1216   0.220E-02    0.639E-02
RMM:   6    -0.400580013654E+03    0.14843E-04   -0.47692E-05  1003   0.616E-03    0.190E-02
RMM:   7    -0.400580011655E+03    0.19989E-05   -0.46338E-06   761   0.251E-03
   77 T=  2076. E= -.25194565E+03 F= -.40058001E+03 E0= -.40055114E+03  EK= 0.26571E+02 SP= 0.12E+03 SK= 0.30E+00 mag=     -0.000
       N       E                     dE             d eps       ncg     rms          rms(c)
DAV:   1    -0.400807375321E+03   -0.22736E+00   -0.63544E-01  1552   0.334E+00    0.100E+00
RMM:   2    -0.400835269858E+03   -0.27895E-01   -0.32707E-01  1216   0.871E-01    0.494E-01
RMM:   3    -0.400834197953E+03    0.10719E-02   -0.35331E-03  1216   0.725E-02    0.385E-01
RMM:   4    -0.400833929189E+03    0.26876E-03   -0.65394E-04  1217   0.238E-02    0.221E-01
RMM:   5    -0.400833755232E+03    0.17396E-03   -0.33761E-04  1216   0.170E-02    0.643E-02
RMM:   6    -0.400833746113E+03    0.91187E-05   -0.31920E-05   932   0.515E-03
   78 T=  2183. E= -.25197633E+03 F= -.40083375E+03 E0= -.40080383E+03  EK= 0.27941E+02 SP= 0.12E+03 SK= 0.22E+00 mag=      0.000
       N       E                     dE             d eps       ncg     rms          rms(c)
DAV:   1    -0.400976479926E+03   -0.14272E+00   -0.70667E-01  1536   0.348E+00    0.108E+00
RMM:   2    -0.401007770260E+03   -0.31290E-01   -0.35625E-01  1216   0.913E-01    0.517E-01
RMM:   3    -0.401006657623E+03    0.11126E-02   -0.35687E-03  1216   0.742E-02    0.404E-01
RMM:   4    -0.401006338553E+03    0.31907E-03   -0.69521E-04  1216   0.255E-02    0.212E-01
RMM:   5    -0.401006208288E+03    0.13026E-03   -0.30458E-04  1216   0.161E-02    0.588E-02
RMM:   6    -0.401006199786E+03    0.85022E-05   -0.26386E-05   896   0.457E-03
   79 T=  2269. E= -.25199292E+03 F= -.40100620E+03 E0= -.40097266E+03  EK= 0.29039E+02 SP= 0.12E+03 SK= 0.11E+00 mag=      0.000
       N       E                     dE             d eps       ncg     rms          rms(c)
DAV:   1    -0.400903119919E+03    0.10309E+00   -0.78142E-01  1472   0.358E+00    0.112E+00
RMM:   2    -0.400936718663E+03   -0.33599E-01   -0.37380E-01  1216   0.939E-01    0.524E-01
RMM:   3    -0.400935494219E+03    0.12244E-02   -0.36485E-03  1216   0.753E-02    0.412E-01
RMM:   4    -0.400935229831E+03    0.26439E-03   -0.57900E-04  1216   0.223E-02    0.264E-01
RMM:   5    -0.400935004755E+03    0.22508E-03   -0.41287E-04  1216   0.192E-02    0.802E-02
RMM:   6    -0.400934993538E+03    0.11217E-04   -0.41719E-05   978   0.594E-03    0.234E-02
RMM:   7    -0.400934992858E+03    0.68078E-06   -0.42947E-06   763   0.250E-03
   80 T=  2310. E= -.25199756E+03 F= -.40093499E+03 E0= -.40090043E+03  EK= 0.29558E+02 SP= 0.12E+03 SK= 0.25E-01 mag=      0.000
       N       E                     dE             d eps       ncg     rms          rms(c)
DAV:   1    -0.400576341866E+03    0.35865E+00   -0.84064E-01  1568   0.361E+00    0.114E+00
RMM:   2    -0.400610082950E+03   -0.33741E-01   -0.38625E-01  1216   0.951E-01    0.541E-01
RMM:   3    -0.400608465817E+03    0.16171E-02   -0.39611E-03  1216   0.773E-02    0.426E-01
RMM:   4    -0.400608218997E+03    0.24682E-03   -0.46828E-04  1216   0.190E-02    0.326E-01
RMM:   5    -0.400607894652E+03    0.32435E-03   -0.61749E-04  1216   0.243E-02    0.900E-02
RMM:   6    -0.400607877233E+03    0.17419E-04   -0.68091E-05  1054   0.738E-03    0.255E-02
RMM:   7    -0.400607875891E+03    0.13411E-05   -0.45970E-06   765   0.255E-03
   81 T=  2298. E= -.25199240E+03 F= -.40060788E+03 E0= -.40057665E+03  EK= 0.29405E+02 SP= 0.12E+03 SK= 0.41E-03 mag=     -0.000
       N       E                     dE             d eps       ncg     rms          rms(c)
DAV:   1    -0.400099035979E+03    0.50884E+00   -0.10216E+00  1520   0.355E+00    0.114E+00
RMM:   2    -0.400135557478E+03   -0.36521E-01   -0.40696E-01  1216   0.968E-01    0.568E-01
RMM:   3    -0.400134217076E+03    0.13404E-02   -0.44435E-03  1216   0.799E-02    0.449E-01
RMM:   4    -0.400133972142E+03    0.24493E-03   -0.58599E-04  1216   0.214E-02    0.313E-01
RMM:   5    -0.400133688849E+03    0.28329E-03   -0.53585E-04  1216   0.219E-02    0.853E-02
RMM:   6    -0.400133672716E+03    0.16133E-04   -0.57453E-05  1036   0.668E-03    0.237E-02
RMM:   7    -0.400133670642E+03    0.20746E-05   -0.51049E-06   772   0.255E-03
   82 T=  2244. E= -.25197200E+03 F= -.40013367E+03 E0= -.40010467E+03  EK= 0.28710E+02 SP= 0.12E+03 SK= 0.32E-01 mag=      0.000
       N       E                     dE             d eps       ncg     rms          rms(c)
DAV:   1    -0.399776727220E+03    0.35695E+00   -0.10492E+00  1504   0.347E+00    0.118E+00
RMM:   2    -0.399810354862E+03   -0.33628E-01   -0.40614E-01  1216   0.975E-01    0.594E-01
RMM:   3    -0.399808728229E+03    0.16266E-02   -0.44471E-03  1216   0.817E-02    0.464E-01
RMM:   4    -0.399808433030E+03    0.29520E-03   -0.71161E-04  1216   0.239E-02    0.316E-01
RMM:   5    -0.399808070089E+03    0.36294E-03   -0.63946E-04  1216   0.240E-02    0.821E-02
RMM:   6    -0.399808047746E+03    0.22342E-04   -0.68651E-05  1054   0.741E-03    0.223E-02
RMM:   7    -0.399808044839E+03    0.29070E-05   -0.65119E-06   784   0.284E-03
   83 T=  2176. E= -.25194227E+03 F= -.39980804E+03 E0= -.39978041E+03  EK= 0.27849E+02 SP= 0.12E+03 SK= 0.93E-01 mag=      0.000
       N       E                     dE             d eps       ncg     rms          rms(c)
DAV:   1    -0.399991709237E+03   -0.18366E+00   -0.96173E-01  1488   0.345E+00    0.113E+00
RMM:   2    -0.400026435854E+03   -0.34727E-01   -0.39804E-01  1216   0.968E-01    0.584E-01
RMM:   3    -0.400024888953E+03    0.15469E-02   -0.45168E-03  1216   0.802E-02    0.460E-01
RMM:   4    -0.400024628191E+03    0.26076E-03   -0.53032E-04  1216   0.200E-02    0.350E-01
RMM:   5    -0.400024250911E+03    0.37728E-03   -0.71778E-04  1216   0.263E-02    0.787E-02
RMM:   6    -0.400024233384E+03    0.17527E-04   -0.63129E-05  1052   0.716E-03    0.214E-02
RMM:   7    -0.400024230154E+03    0.32301E-05   -0.58970E-06   782   0.269E-03
   84 T=  2132. E= -.25192628E+03 F= -.40002423E+03 E0= -.39999869E+03  EK= 0.27285E+02 SP= 0.12E+03 SK= 0.16E+00 mag=      0.000
       N       E                     dE             d eps       ncg     rms          rms(c)
DAV:   1    -0.400890542772E+03   -0.86631E+00   -0.96492E-01  1504   0.347E+00    0.106E+00
RMM:   2    -0.400923453694E+03   -0.32911E-01   -0.36674E-01  1216   0.940E-01    0.524E-01
RMM:   3    -0.400922346828E+03    0.11069E-02   -0.33201E-03  1216   0.735E-02    0.412E-01
RMM:   4    -0.400922119811E+03    0.22702E-03   -0.49137E-04  1216   0.200E-02    0.285E-01
RMM:   5    -0.400921844483E+03    0.27533E-03   -0.49588E-04  1216   0.217E-02    0.698E-02
RMM:   6    -0.400921833261E+03    0.11222E-04   -0.42464E-05   991   0.604E-03    0.185E-02
RMM:   7    -0.400921831064E+03    0.21965E-05   -0.48034E-06   756   0.249E-03
   85 T=  2124. E= -.25194781E+03 F= -.40092183E+03 E0= -.40089972E+03  EK= 0.27184E+02 SP= 0.12E+03 SK= 0.23E+00 mag=     -0.000
       N       E                     dE             d eps       ncg     rms          rms(c)
DAV:   1    -0.402039956668E+03   -0.11181E+01   -0.86826E-01  1584   0.353E+00    0.103E+00
RMM:   2    -0.402071991518E+03   -0.32035E-01   -0.36172E-01  1216   0.911E-01    0.488E-01
RMM:   3    -0.402070823350E+03    0.11682E-02   -0.52063E-03  1216   0.773E-02    0.381E-01
RMM:   4    -0.402070629396E+03    0.19395E-03   -0.51865E-04  1216   0.188E-02    0.288E-01
RMM:   5    -0.402070359041E+03    0.27035E-03   -0.53376E-04  1216   0.226E-02    0.773E-02
RMM:   6    -0.402070345999E+03    0.13043E-04   -0.57461E-05  1044   0.686E-03    0.209E-02
RMM:   7    -0.402070344824E+03    0.11750E-05   -0.49540E-06   787   0.253E-03
   86 T=  2120. E= -.25199330E+03 F= -.40207034E+03 E0= -.40205195E+03  EK= 0.27129E+02 SP= 0.12E+03 SK= 0.31E+00 mag=     -0.000
       N       E                     dE             d eps       ncg     rms          rms(c)
DAV:   1    -0.402682468247E+03   -0.61212E+00   -0.81646E-01  1648   0.359E+00    0.105E+00
RMM:   2    -0.402713473088E+03   -0.31005E-01   -0.35182E-01  1216   0.912E-01    0.492E-01
RMM:   3    -0.402712221025E+03    0.12521E-02   -0.37005E-03  1216   0.741E-02    0.385E-01
RMM:   4    -0.402712026863E+03    0.19416E-03   -0.42426E-04  1216   0.180E-02    0.292E-01
RMM:   5    -0.402711768203E+03    0.25866E-03   -0.50511E-04  1216   0.221E-02    0.749E-02
RMM:   6    -0.402711759441E+03    0.87629E-05   -0.47312E-05   981   0.628E-03
   87 T=  2066. E= -.25201039E+03 F= -.40271176E+03 E0= -.40269385E+03  EK= 0.26438E+02 SP= 0.12E+03 SK= 0.39E+00 mag=      0.000
       N       E                     dE             d eps       ncg     rms          rms(c)
DAV:   1    -0.402449627450E+03    0.26214E+00   -0.77258E-01  1552   0.353E+00    0.103E+00
RMM:   2    -0.402479643988E+03   -0.30017E-01   -0.34936E-01  1216   0.893E-01    0.531E-01
RMM:   3    -0.402478340170E+03    0.13038E-02   -0.36258E-03  1216   0.727E-02    0.420E-01
RMM:   4    -0.402478129738E+03    0.21043E-03   -0.41931E-04  1216   0.181E-02    0.312E-01
RMM:   5    -0.402477864952E+03    0.26479E-03   -0.54677E-04  1216   0.226E-02    0.827E-02
RMM:   6    -0.402477846427E+03    0.18525E-04   -0.64188E-05  1052   0.691E-03    0.237E-02
RMM:   7    -0.402477845152E+03    0.12750E-05   -0.48561E-06   766   0.252E-03
   88 T=  1945. E= -.25197285E+03 F= -.40247785E+03 E0= -.40245332E+03  EK= 0.24885E+02 SP= 0.13E+03 SK= 0.42E+00 mag=      0.000
       N       E                     dE             d eps       ncg     rms          rms(c)
DAV:   1    -0.401738045757E+03    0.73980E+00   -0.91987E-01  1488   0.334E+00    0.991E-01
RMM:   2    -0.401767437685E+03   -0.29392E-01   -0.33167E-01  1216   0.872E-01    0.533E-01
RMM:   3    -0.401766296489E+03    0.11412E-02   -0.34770E-03  1216   0.709E-02    0.423E-01
RMM:   4    -0.401766049693E+03    0.24680E-03   -0.53258E-04  1216   0.204E-02    0.289E-01
RMM:   5    -0.401765759083E+03    0.29061E-03   -0.52817E-04  1216   0.218E-02    0.759E-02
RMM:   6    -0.401765743705E+03    0.15378E-04   -0.48700E-05  1010   0.621E-03    0.232E-02
RMM:   7    -0.401765740673E+03    0.30326E-05   -0.50572E-06   769   0.255E-03
   89 T=  1798. E= -.25191363E+03 F= -.40176574E+03 E0= -.40173693E+03  EK= 0.23005E+02 SP= 0.13E+03 SK= 0.35E+00 mag=      0.000
       N       E                     dE             d eps       ncg     rms          rms(c)
DAV:   1    -0.401316211261E+03    0.44953E+00   -0.72473E-01  1552   0.316E+00    0.991E-01
RMM:   2    -0.401339559829E+03   -0.23349E-01   -0.30549E-01  1216   0.836E-01    0.499E-01
RMM:   3    -0.401337606184E+03    0.19536E-02   -0.36465E-03  1216   0.715E-02    0.389E-01
RMM:   4    -0.401337307380E+03    0.29880E-03   -0.41135E-04  1216   0.178E-02    0.303E-01
RMM:   5    -0.401336959322E+03    0.34806E-03   -0.67220E-04  1216   0.257E-02    0.673E-02
RMM:   6    -0.401336941099E+03    0.18223E-04   -0.55412E-05  1014   0.670E-03    0.195E-02
RMM:   7    -0.401336936788E+03    0.43109E-05   -0.47504E-06   760   0.250E-03
   90 T=  1691. E= -.25188115E+03 F= -.40133694E+03 E0= -.40131248E+03  EK= 0.21641E+02 SP= 0.13E+03 SK= 0.22E+00 mag=     -0.000
       N       E                     dE             d eps       ncg     rms          rms(c)
DAV:   1    -0.401605501127E+03   -0.26856E+00   -0.49831E-01  1440   0.310E+00    0.882E-01
RMM:   2    -0.401628862405E+03   -0.23361E-01   -0.26605E-01  1216   0.784E-01    0.433E-01
RMM:   3    -0.401627884678E+03    0.97773E-03   -0.26227E-03  1216   0.631E-02    0.338E-01
RMM:   4    -0.401627688087E+03    0.19659E-03   -0.40757E-04  1216   0.179E-02    0.234E-01
RMM:   5    -0.401627471350E+03    0.21674E-03   -0.38591E-04  1216   0.188E-02    0.640E-02
RMM:   6    -0.401627459453E+03    0.11897E-04   -0.34299E-05   944   0.537E-03    0.186E-02
RMM:   7    -0.401627456795E+03    0.26581E-05   -0.38932E-06   736   0.231E-03
   91 T=  1661. E= -.25188941E+03 F= -.40162746E+03 E0= -.40160884E+03  EK= 0.21253E+02 SP= 0.13E+03 SK= 0.89E-01 mag=     -0.000
       N       E                     dE             d eps       ncg     rms          rms(c)
DAV:   1    -0.402455294027E+03   -0.82783E+00   -0.45204E-01  1504   0.309E+00    0.849E-01
RMM:   2    -0.402479072327E+03   -0.23778E-01   -0.25771E-01  1216   0.762E-01    0.422E-01
RMM:   3    -0.402478347217E+03    0.72511E-03   -0.29405E-03  1216   0.626E-02    0.333E-01
RMM:   4    -0.402478104615E+03    0.24260E-03   -0.51749E-04  1216   0.211E-02    0.187E-01
RMM:   5    -0.402477991109E+03    0.11351E-03   -0.22731E-04  1216   0.138E-02    0.649E-02
RMM:   6    -0.402477984250E+03    0.68587E-05   -0.24813E-05   886   0.455E-03
   92 T=  1695. E= -.25191549E+03 F= -.40247798E+03 E0= -.40246324E+03  EK= 0.21693E+02 SP= 0.13E+03 SK= 0.19E-01 mag=      0.000
       N       E                     dE             d eps       ncg     rms          rms(c)
DAV:   1    -0.403418315784E+03   -0.94032E+00   -0.58859E-01  1504   0.313E+00    0.916E-01
RMM:   2    -0.403444354137E+03   -0.26038E-01   -0.28003E-01  1216   0.799E-01    0.443E-01
RMM:   3    -0.403443565333E+03    0.78880E-03   -0.28470E-03  1216   0.658E-02    0.350E-01
RMM:   4    -0.403443298890E+03    0.26644E-03   -0.57193E-04  1216   0.228E-02    0.183E-01
RMM:   5    -0.403443204838E+03    0.94053E-04   -0.19887E-04  1216   0.128E-02    0.658E-02
RMM:   6    -0.403443200264E+03    0.45737E-05   -0.22407E-05   879   0.436E-03
   93 T=  1759. E= -.25193568E+03 F= -.40344320E+03 E0= -.40342919E+03  EK= 0.22508E+02 SP= 0.13E+03 SK= 0.23E-04 mag=      0.000
       N       E                     dE             d eps       ncg     rms          rms(c)
DAV:   1    -0.404122505419E+03   -0.67930E+00   -0.67025E-01  1584   0.317E+00    0.928E-01
RMM:   2    -0.404148816901E+03   -0.26311E-01   -0.27992E-01  1216   0.803E-01    0.442E-01
RMM:   3    -0.404147988969E+03    0.82793E-03   -0.26860E-03  1216   0.659E-02    0.351E-01
RMM:   4    -0.404147802341E+03    0.18663E-03   -0.40355E-04  1216   0.185E-02    0.228E-01
RMM:   5    -0.404147651505E+03    0.15084E-03   -0.28941E-04  1216   0.159E-02    0.721E-02
RMM:   6    -0.404147646890E+03    0.46155E-05   -0.30522E-05   921   0.509E-03
   94 T=  1819. E= -.25194970E+03 F= -.40414765E+03 E0= -.40413031E+03  EK= 0.23281E+02 SP= 0.13E+03 SK= 0.85E-02 mag=      0.000
       N       E                     dE             d eps       ncg     rms          rms(c)
DAV:   1    -0.404325337365E+03   -0.17769E+00   -0.68795E-01  1600   0.318E+00    0.906E-01
RMM:   2    -0.404352762393E+03   -0.27425E-01   -0.28886E-01  1216   0.811E-01    0.444E-01
RMM:   3    -0.404352174860E+03    0.58753E-03   -0.35740E-03  1216   0.685E-02    0.356E-01
RMM:   4    -0.404351993742E+03    0.18112E-03   -0.46254E-04  1218   0.197E-02    0.207E-01
RMM:   5    -0.404351881308E+03    0.11243E-03   -0.21978E-04  1216   0.134E-02    0.693E-02
RMM:   6    -0.404351876771E+03    0.45368E-05   -0.25264E-05   892   0.470E-03
   95 T=  1855. E= -.25195066E+03 F= -.40435188E+03 E0= -.40432801E+03  EK= 0.23733E+02 SP= 0.13E+03 SK= 0.27E-01 mag=      0.000
       N       E                     dE             d eps       ncg     rms          rms(c)
DAV:   1    -0.404017282019E+03    0.33460E+00   -0.70318E-01  1584   0.315E+00    0.929E-01
RMM:   2    -0.404043650042E+03   -0.26368E-01   -0.28412E-01  1216   0.816E-01    0.454E-01
RMM:   3    -0.404042890183E+03    0.75986E-03   -0.24923E-03  1216   0.646E-02    0.363E-01
RMM:   4    -0.404042720073E+03    0.17011E-03   -0.38770E-04  1216   0.181E-02    0.230E-01
RMM:   5    -0.404042573855E+03    0.14622E-03   -0.25184E-04  1216   0.147E-02    0.772E-02
RMM:   6    -0.404042563962E+03    0.98929E-05   -0.31738E-05   949   0.519E-03
   96 T=  1862. E= -.25193129E+03 F= -.40404256E+03 E0= -.40401415E+03  EK= 0.23824E+02 SP= 0.13E+03 SK= 0.50E-01 mag=     -0.000
       N       E                     dE             d eps       ncg     rms          rms(c)
DAV:   1    -0.403495944060E+03    0.54663E+00   -0.79199E-01  1504   0.308E+00    0.940E-01
RMM:   2    -0.403523611307E+03   -0.27667E-01   -0.30198E-01  1216   0.826E-01    0.473E-01
RMM:   3    -0.403522811100E+03    0.80021E-03   -0.36128E-03  1216   0.690E-02    0.375E-01
RMM:   4    -0.403522621961E+03    0.18914E-03   -0.44627E-04  1218   0.186E-02    0.250E-01
RMM:   5    -0.403522427613E+03    0.19435E-03   -0.34782E-04  1216   0.176E-02    0.703E-02
RMM:   6    -0.403522416875E+03    0.10738E-04   -0.31726E-05   933   0.528E-03    0.181E-02
RMM:   7    -0.403522415223E+03    0.16519E-05   -0.33906E-06   757   0.225E-03
   97 T=  1862. E= -.25190297E+03 F= -.40352242E+03 E0= -.40349353E+03  EK= 0.23833E+02 SP= 0.13E+03 SK= 0.82E-01 mag=     -0.000
       N       E                     dE             d eps       ncg     rms          rms(c)
DAV:   1    -0.403203014624E+03    0.31940E+00   -0.83603E-01  1488   0.301E+00    0.917E-01
RMM:   2    -0.403229547633E+03   -0.26533E-01   -0.29123E-01  1216   0.822E-01    0.472E-01
RMM:   3    -0.403228654681E+03    0.89295E-03   -0.29790E-03  1216   0.668E-02    0.372E-01
RMM:   4    -0.403228455056E+03    0.19962E-03   -0.43559E-04  1216   0.187E-02    0.245E-01
RMM:   5    -0.403228255274E+03    0.19978E-03   -0.35530E-04  1216   0.178E-02    0.656E-02
RMM:   6    -0.403228244735E+03    0.10539E-04   -0.31122E-05   928   0.526E-03    0.162E-02
RMM:   7    -0.403228242920E+03    0.18154E-05   -0.33988E-06   740   0.227E-03
   98 T=  1889. E= -.25188948E+03 F= -.40322824E+03 E0= -.40319856E+03  EK= 0.24174E+02 SP= 0.13E+03 SK= 0.12E+00 mag=     -0.000
       N       E                     dE             d eps       ncg     rms          rms(c)
DAV:   1    -0.403375975309E+03   -0.14773E+00   -0.74248E-01  1472   0.300E+00    0.895E-01
RMM:   2    -0.403400674178E+03   -0.24699E-01   -0.27967E-01  1216   0.806E-01    0.461E-01
RMM:   3    -0.403399719209E+03    0.95497E-03   -0.30712E-03  1216   0.663E-02    0.360E-01
RMM:   4    -0.403399484497E+03    0.23471E-03   -0.53772E-04  1216   0.213E-02    0.219E-01
RMM:   5    -0.403399296694E+03    0.18780E-03   -0.32529E-04  1216   0.167E-02    0.649E-02
RMM:   6    -0.403399287570E+03    0.91240E-05   -0.30932E-05   925   0.513E-03
   99 T=  1959. E= -.25189798E+03 F= -.40339929E+03 E0= -.40336947E+03  EK= 0.25065E+02 SP= 0.13E+03 SK= 0.14E+00 mag=      0.000
       N       E                     dE             d eps       ncg     rms          rms(c)
DAV:   1    -0.403924609532E+03   -0.52531E+00   -0.73031E-01  1520   0.306E+00    0.911E-01
RMM:   2    -0.403948575182E+03   -0.23966E-01   -0.28184E-01  1216   0.814E-01    0.461E-01
RMM:   3    -0.403947370807E+03    0.12044E-02   -0.28124E-03  1216   0.664E-02    0.358E-01
RMM:   4    -0.403947154850E+03    0.21596E-03   -0.41466E-04  1216   0.184E-02    0.253E-01
RMM:   5    -0.403946912986E+03    0.24186E-03   -0.43722E-04  1216   0.202E-02    0.655E-02
RMM:   6    -0.403946902290E+03    0.10697E-04   -0.41728E-05   981   0.598E-03    0.165E-02
RMM:   7    -0.403946901209E+03    0.10811E-05   -0.37600E-06   735   0.238E-03
  100 T=  2061. E= -.25192360E+03 F= -.40394690E+03 E0= -.40391987E+03  EK= 0.26370E+02 SP= 0.13E+03 SK= 0.13E+00 mag=      0.000
