<?xml version="1.0" encoding="ISO-8859-1"?>
<modeling>
 <generator>
  <i name="program" type="string">vasp </i>
  <i name="version" type="string">5.4.4.18Apr17-6-g9f103f2a35  </i>
  <i name="subversion" type="string">(build Sep 16 2020 16:20:45) complex            parallel </i>
  <i name="platform" type="string">LinuxIFC </i>
  <i name="date" type="string">2021 08 05 </i>
  <i name="time" type="string">12:02:33 </i>
 </generator>
 <incar>
  <i type="string" name="PREC">normal</i>
  <i type="string" name="ALGO"> Fast</i>
  <i type="int" name="ISPIN">     2</i>
  <i type="int" name="NELM">    60</i>
  <i type="int" name="NELMIN">     4</i>
  <i type="int" name="IBRION">     0</i>
  <i name="EDIFF">      0.00001000</i>
  <i type="int" name="NSW">   100</i>
  <i type="int" name="ISIF">     2</i>
  <i type="int" name="ISYM">     0</i>
  <i name="POTIM">      3.00000000</i>
  <i name="TEBEG">   2000.00000000</i>
  <i name="TEEND">   2000.00000000</i>
  <i name="SMASS">      1.00000000</i>
  <i type="string" name="LREAL"> auto</i>
  <i type="int" name="ISMEAR">     0</i>
  <i name="SIGMA">      0.05000000</i>
  <i type="logical" name="LWAVE"> F  </i>
  <i type="logical" name="LCHARG"> F  </i>
  <i type="int" name="MDALGO">     2</i>
  <v type="int" name="KPOINT_BSE">    -1     0     0     0</v>
  <i type="int" name="NELM">    60</i>
 </incar>
 <structure name="primitive_cell" >
  <crystal>
   <varray name="basis" >
    <v>      10.21149500       0.00000000       0.00000000 </v>
    <v>       0.00000000      10.21149500       0.00000000 </v>
    <v>       0.00000000       0.00000000      10.21149500 </v>
   </varray>
   <i name="volume">   1064.79986425 </i>
   <varray name="rec_basis" >
    <v>       0.09792885       0.00000000       0.00000000 </v>
    <v>       0.00000000       0.09792885       0.00000000 </v>
    <v>       0.00000000       0.00000000       0.09792885 </v>
   </varray>
  </crystal>
  <varray name="positions" >
   <v>      -0.20000000      -0.40000000       0.20000000 </v>
   <v>      -0.40000000      -0.40000000       0.20000000 </v>
   <v>      -0.20000000      -0.40000000       0.40000000 </v>
   <v>      -0.40000000      -0.40000000       0.40000000 </v>
   <v>      -0.20000000      -0.20000000       0.40000000 </v>
   <v>      -0.20000000      -0.20000000       0.00000000 </v>
   <v>      -0.40000000      -0.40000000       0.00000000 </v>
   <v>       0.00000000      -0.40000000       0.40000000 </v>
   <v>      -0.40000000       0.40000000       0.20000000 </v>
   <v>       0.00000000       0.40000000       0.20000000 </v>
   <v>       0.00000000      -0.40000000       0.00000000 </v>
   <v>      -0.20000000       0.40000000       0.00000000 </v>
   <v>      -0.40000000      -0.20000000       0.40000000 </v>
   <v>      -0.40000000      -0.20000000       0.00000000 </v>
   <v>      -0.40000000       0.40000000       0.40000000 </v>
   <v>       0.00000000      -0.20000000       0.40000000 </v>
   <v>       0.00000000      -0.20000000       0.00000000 </v>
   <v>      -0.40000000       0.40000000       0.00000000 </v>
   <v>      -0.20000000       0.20000000       0.20000000 </v>
   <v>       0.20000000      -0.40000000       0.20000000 </v>
   <v>      -0.20000000      -0.40000000      -0.20000000 </v>
   <v>      -0.20000000       0.20000000       0.40000000 </v>
   <v>       0.40000000      -0.40000000       0.40000000 </v>
   <v>      -0.20000000       0.00000000       0.40000000 </v>
   <v>       0.40000000      -0.20000000       0.20000000 </v>
   <v>      -0.40000000      -0.40000000      -0.40000000 </v>
   <v>      -0.40000000       0.00000000       0.20000000 </v>
   <v>       0.00000000       0.20000000       0.20000000 </v>
   <v>       0.00000000       0.00000000       0.20000000 </v>
   <v>       0.00000000      -0.40000000      -0.40000000 </v>
   <v>      -0.20000000       0.00000000       0.00000000 </v>
   <v>       0.40000000       0.40000000       0.20000000 </v>
   <v>       0.40000000      -0.40000000       0.00000000 </v>
   <v>       0.20000000      -0.40000000       0.40000000 </v>
   <v>       0.20000000      -0.20000000       0.20000000 </v>
   <v>      -0.20000000      -0.20000000      -0.20000000 </v>
   <v>      -0.40000000      -0.40000000      -0.20000000 </v>
   <v>       0.20000000       0.40000000       0.20000000 </v>
   <v>       0.00000000      -0.40000000      -0.20000000 </v>
   <v>       0.20000000      -0.40000000       0.00000000 </v>
   <v>      -0.40000000       0.20000000       0.40000000 </v>
   <v>      -0.40000000       0.00000000       0.40000000 </v>
   <v>      -0.40000000      -0.20000000      -0.40000000 </v>
   <v>       0.40000000      -0.20000000       0.40000000 </v>
   <v>      -0.40000000       0.20000000       0.00000000 </v>
   <v>      -0.40000000       0.40000000      -0.40000000 </v>
   <v>      -0.40000000       0.00000000       0.00000000 </v>
   <v>       0.40000000      -0.20000000       0.00000000 </v>
   <v>       0.40000000       0.40000000       0.40000000 </v>
   <v>       0.00000000      -0.20000000      -0.40000000 </v>
   <v>      -0.40000000      -0.20000000      -0.20000000 </v>
   <v>       0.20000000      -0.20000000       0.40000000 </v>
   <v>       0.00000000       0.00000000       0.00000000 </v>
   <v>       0.00000000       0.40000000      -0.40000000 </v>
   <v>       0.40000000       0.40000000       0.00000000 </v>
   <v>       0.00000000       0.20000000       0.00000000 </v>
   <v>       0.20000000       0.40000000       0.40000000 </v>
   <v>       0.20000000      -0.20000000       0.00000000 </v>
   <v>       0.00000000      -0.20000000      -0.20000000 </v>
   <v>       0.20000000       0.40000000       0.00000000 </v>
   <v>       0.40000000       0.00000000       0.20000000 </v>
   <v>      -0.20000000       0.20000000      -0.40000000 </v>
   <v>       0.40000000      -0.40000000      -0.40000000 </v>
   <v>       0.40000000       0.20000000       0.20000000 </v>
   <v>      -0.20000000       0.00000000      -0.40000000 </v>
   <v>      -0.20000000       0.20000000      -0.20000000 </v>
   <v>       0.20000000      -0.40000000      -0.40000000 </v>
   <v>       0.20000000       0.00000000       0.20000000 </v>
   <v>      -0.20000000       0.00000000      -0.20000000 </v>
   <v>       0.20000000       0.20000000       0.20000000 </v>
   <v>       0.20000000      -0.40000000      -0.20000000 </v>
   <v>       0.40000000       0.00000000       0.40000000 </v>
   <v>       0.40000000       0.20000000       0.40000000 </v>
   <v>      -0.40000000       0.20000000      -0.40000000 </v>
   <v>      -0.40000000       0.00000000      -0.40000000 </v>
   <v>       0.40000000      -0.20000000      -0.40000000 </v>
   <v>       0.00000000       0.20000000      -0.40000000 </v>
   <v>       0.00000000       0.00000000      -0.40000000 </v>
   <v>       0.40000000       0.00000000       0.00000000 </v>
   <v>       0.40000000       0.20000000       0.00000000 </v>
   <v>       0.20000000       0.20000000       0.40000000 </v>
   <v>       0.20000000       0.00000000       0.40000000 </v>
   <v>      -0.40000000       0.00000000      -0.20000000 </v>
   <v>      -0.40000000       0.20000000      -0.20000000 </v>
   <v>       0.40000000      -0.20000000      -0.20000000 </v>
   <v>       0.20000000      -0.20000000      -0.40000000 </v>
   <v>       0.20000000       0.20000000       0.00000000 </v>
   <v>       0.20000000       0.00000000       0.00000000 </v>
   <v>       0.00000000       0.20000000      -0.20000000 </v>
   <v>       0.20000000       0.40000000      -0.40000000 </v>
   <v>       0.40000000       0.40000000      -0.20000000 </v>
   <v>       0.20000000      -0.20000000      -0.20000000 </v>
   <v>       0.40000000       0.20000000      -0.40000000 </v>
   <v>       0.40000000       0.00000000      -0.40000000 </v>
   <v>       0.40000000       0.20000000      -0.20000000 </v>
   <v>       0.40000000       0.00000000      -0.20000000 </v>
   <v>       0.20000000       0.00000000      -0.40000000 </v>
   <v>       0.20000000       0.20000000      -0.40000000 </v>
   <v>       0.20000000       0.00000000      -0.20000000 </v>
   <v>       0.20000000       0.20000000      -0.20000000 </v>
  </varray>
 </structure>
 <varray name="primitive_index" >
  <v type="int" >        1 </v>
  <v type="int" >        8 </v>
  <v type="int" >       38 </v>
  <v type="int" >        7 </v>
  <v type="int" >       58 </v>
  <v type="int" >        2 </v>
  <v type="int" >       41 </v>
  <v type="int" >       67 </v>
  <v type="int" >       92 </v>
  <v type="int" >       26 </v>
  <v type="int" >       79 </v>
  <v type="int" >       94 </v>
  <v type="int" >       20 </v>
  <v type="int" >       21 </v>
  <v type="int" >       81 </v>
  <v type="int" >       95 </v>
  <v type="int" >       36 </v>
  <v type="int" >       75 </v>
  <v type="int" >       47 </v>
  <v type="int" >       52 </v>
  <v type="int" >       69 </v>
  <v type="int" >       12 </v>
  <v type="int" >       24 </v>
  <v type="int" >       25 </v>
  <v type="int" >       37 </v>
  <v type="int" >       63 </v>
  <v type="int" >       90 </v>
  <v type="int" >       39 </v>
  <v type="int" >       43 </v>
  <v type="int" >       44 </v>
  <v type="int" >       50 </v>
  <v type="int" >       55 </v>
  <v type="int" >       87 </v>
  <v type="int" >       34 </v>
  <v type="int" >       64 </v>
  <v type="int" >       70 </v>
  <v type="int" >       80 </v>
  <v type="int" >       35 </v>
  <v type="int" >       54 </v>
  <v type="int" >       59 </v>
  <v type="int" >        3 </v>
  <v type="int" >       31 </v>
  <v type="int" >       74 </v>
  <v type="int" >       76 </v>
  <v type="int" >       23 </v>
  <v type="int" >       42 </v>
  <v type="int" >       61 </v>
  <v type="int" >       77 </v>
  <v type="int" >       78 </v>
  <v type="int" >       98 </v>
  <v type="int" >        6 </v>
  <v type="int" >       82 </v>
  <v type="int" >       10 </v>
  <v type="int" >       22 </v>
  <v type="int" >       29 </v>
  <v type="int" >       96 </v>
  <v type="int" >       28 </v>
  <v type="int" >       33 </v>
  <v type="int" >       56 </v>
  <v type="int" >       97 </v>
  <v type="int" >        9 </v>
  <v type="int" >       14 </v>
  <v type="int" >       84 </v>
  <v type="int" >       86 </v>
  <v type="int" >       88 </v>
  <v type="int" >        4 </v>
  <v type="int" >       57 </v>
  <v type="int" >       66 </v>
  <v type="int" >       83 </v>
  <v type="int" >      100 </v>
  <v type="int" >       72 </v>
  <v type="int" >        5 </v>
  <v type="int" >       19 </v>
  <v type="int" >       48 </v>
  <v type="int" >       60 </v>
  <v type="int" >       93 </v>
  <v type="int" >       15 </v>
  <v type="int" >       17 </v>
  <v type="int" >       40 </v>
  <v type="int" >       85 </v>
  <v type="int" >       11 </v>
  <v type="int" >       16 </v>
  <v type="int" >       30 </v>
  <v type="int" >       71 </v>
  <v type="int" >       89 </v>
  <v type="int" >       99 </v>
  <v type="int" >       18 </v>
  <v type="int" >       27 </v>
  <v type="int" >       13 </v>
  <v type="int" >       46 </v>
  <v type="int" >       65 </v>
  <v type="int" >       73 </v>
  <v type="int" >       45 </v>
  <v type="int" >       91 </v>
  <v type="int" >       49 </v>
  <v type="int" >       53 </v>
  <v type="int" >       62 </v>
  <v type="int" >       68 </v>
  <v type="int" >       32 </v>
  <v type="int" >       51 </v>
 </varray>
 <kpoints>
  <generation param="Gamma">
   <v type="int" name="divisions">       1        1        1 </v>
   <v name="usershift">      0.00000000       0.00000000       0.00000000 </v>
   <v name="genvec1">      1.00000000       0.00000000       0.00000000 </v>
   <v name="genvec2">      0.00000000       1.00000000       0.00000000 </v>
   <v name="genvec3">      0.00000000       0.00000000       1.00000000 </v>
   <v name="shift">      0.00000000       0.00000000       0.00000000 </v>
  </generation>
  <varray name="kpointlist" >
   <v>       0.00000000       0.00000000       0.00000000 </v>
  </varray>
  <varray name="weights" >
   <v>       1.00000000 </v>
  </varray>
 </kpoints>
 <parameters>
  <separator name="general" >
   <i type="string" name="SYSTEM">unknown system</i>
   <i type="logical" name="LCOMPAT"> F  </i>
  </separator>
  <separator name="electronic" >
   <i type="string" name="PREC">normal</i>
   <i name="ENMAX">    245.34500000</i>
   <i name="ENAUG">    322.06900000</i>
   <i name="EDIFF">      0.00001000</i>
   <i type="int" name="IALGO">    68</i>
   <i type="int" name="IWAVPR">    12</i>
   <i type="int" name="NBANDS">   304</i>
   <i name="NELECT">    400.00000000</i>
   <i type="int" name="TURBO">     0</i>
   <i type="int" name="IRESTART">     0</i>
   <i type="int" name="NREBOOT">     0</i>
   <i type="int" name="NMIN">     0</i>
   <i name="EREF">      0.00000000</i>
   <separator name="electronic smearing" >
    <i type="int" name="ISMEAR">     0</i>
    <i name="SIGMA">      0.05000000</i>
    <i name="KSPACING">      0.50000000</i>
    <i type="logical" name="KGAMMA"> T  </i>
   </separator>
   <separator name="electronic projectors" >
    <i type="logical" name="LREAL"> T  </i>
    <v name="ROPT">     -0.00050000</v>
    <i type="int" name="LMAXPAW">  -100</i>
    <i type="int" name="LMAXMIX">     2</i>
    <i type="logical" name="NLSPLINE"> F  </i>
   </separator>
   <separator name="electronic startup" >
    <i type="int" name="ISTART">     0</i>
    <i type="int" name="ICHARG">     2</i>
    <i type="int" name="INIWAV">     1</i>
   </separator>
   <separator name="electronic spin" >
    <i type="int" name="ISPIN">     2</i>
    <i type="logical" name="LNONCOLLINEAR"> F  </i>
    <v name="MAGMOM">      1.00000000      1.00000000      1.00000000      1.00000000      1.00000000      1.00000000      1.00000000      1.00000000      1.00000000      1.00000000      1.00000000      1.00000000      1.00000000      1.00000000      1.00000000      1.00000000      1.00000000      1.00000000      1.00000000      1.00000000
      1.00000000      1.00000000      1.00000000      1.00000000      1.00000000      1.00000000      1.00000000      1.00000000      1.00000000      1.00000000      1.00000000      1.00000000      1.00000000      1.00000000      1.00000000      1.00000000      1.00000000      1.00000000      1.00000000      1.00000000
      1.00000000      1.00000000      1.00000000      1.00000000      1.00000000      1.00000000      1.00000000      1.00000000      1.00000000      1.00000000      1.00000000      1.00000000      1.00000000      1.00000000      1.00000000      1.00000000      1.00000000      1.00000000      1.00000000      1.00000000
      1.00000000      1.00000000      1.00000000      1.00000000      1.00000000      1.00000000      1.00000000      1.00000000      1.00000000      1.00000000      1.00000000      1.00000000      1.00000000      1.00000000      1.00000000      1.00000000      1.00000000      1.00000000      1.00000000      1.00000000
      1.00000000      1.00000000      1.00000000      1.00000000      1.00000000      1.00000000      1.00000000      1.00000000      1.00000000      1.00000000      1.00000000      1.00000000      1.00000000      1.00000000      1.00000000      1.00000000      1.00000000      1.00000000      1.00000000      1.00000000
</v>
    <i name="NUPDOWN">     -1.00000000</i>
    <i type="logical" name="LSORBIT"> F  </i>
    <v name="SAXIS">      0.00000000      0.00000000      1.00000000</v>
    <i type="logical" name="LSPIRAL"> F  </i>
    <v name="QSPIRAL">      0.00000000      0.00000000      0.00000000</v>
    <i type="logical" name="LZEROZ"> F  </i>
   </separator>
   <separator name="electronic exchange-correlation" >
    <i type="logical" name="LASPH"> F  </i>
    <i type="logical" name="LMETAGGA"> F  </i>
   </separator>
   <separator name="electronic convergence" >
    <i type="int" name="NELM">    60</i>
    <i type="int" name="NELMDL">     0</i>
    <i type="int" name="NELMIN">     4</i>
    <i name="ENINI">    245.34500000</i>
    <separator name="electronic convergence detail" >
     <i type="logical" name="LDIAG"> T  </i>
     <i type="logical" name="LSUBROT"> F  </i>
     <i name="WEIMIN">      0.00100000</i>
     <i name="EBREAK">      0.00000001</i>
     <i name="DEPER">      0.30000000</i>
     <i type="int" name="NRMM">     4</i>
     <i name="TIME">      0.40000000</i>
    </separator>
   </separator>
   <separator name="electronic mixer" >
    <i name="AMIX">      0.40000000</i>
    <i name="BMIX">      1.00000000</i>
    <i name="AMIN">      0.10000000</i>
    <i name="AMIX_MAG">      1.60000000</i>
    <i name="BMIX_MAG">      1.00000000</i>
    <separator name="electronic mixer details" >
     <i type="int" name="IMIX">     4</i>
     <i type="logical" name="MIXFIRST"> F  </i>
     <i type="int" name="MAXMIX">   -45</i>
     <i name="WC">    100.00000000</i>
     <i type="int" name="INIMIX">     1</i>
     <i type="int" name="MIXPRE">     1</i>
     <i type="int" name="MREMOVE">     5</i>
    </separator>
   </separator>
   <separator name="electronic dipolcorrection" >
    <i type="logical" name="LDIPOL"> F  </i>
    <i type="logical" name="LMONO"> F  </i>
    <i type="int" name="IDIPOL">     0</i>
    <i name="EPSILON">      1.00000000</i>
    <v name="DIPOL">   -100.00000000   -100.00000000   -100.00000000</v>
    <i name="EFIELD">      0.00000000</i>
   </separator>
  </separator>
  <separator name="grids" >
   <i type="int" name="NGX">    40</i>
   <i type="int" name="NGY">    40</i>
   <i type="int" name="NGZ">    40</i>
   <i type="int" name="NGXF">    80</i>
   <i type="int" name="NGYF">    80</i>
   <i type="int" name="NGZF">    80</i>
   <i type="logical" name="ADDGRID"> F  </i>
  </separator>
  <separator name="ionic" >
   <i type="int" name="NSW">   100</i>
   <i type="int" name="IBRION">     0</i>
   <i type="int" name="MDALGO">     2</i>
   <i type="int" name="ISIF">     2</i>
   <i name="PSTRESS">      0.00000000</i>
   <i name="EDIFFG">      0.00010000</i>
   <i type="int" name="NFREE">     0</i>
   <i name="POTIM">      3.00000000</i>
   <i name="SMASS">      1.00000000</i>
   <i name="SCALEE">      1.00000000</i>
  </separator>
  <separator name="ionic md" >
   <i name="TEBEG">   2000.00000000</i>
   <i name="TEEND">   2000.00000000</i>
   <i type="int" name="NBLOCK">     1</i>
   <i type="int" name="KBLOCK">   100</i>
   <i type="int" name="NPACO">   256</i>
   <i name="APACO">     16.00000000</i>
  </separator>
  <separator name="symmetry" >
   <i type="int" name="ISYM">     0</i>
   <i name="SYMPREC">      0.00001000</i>
  </separator>
  <separator name="dos" >
   <i type="int" name="LORBIT">     0</i>
   <v name="RWIGS">     -1.00000000</v>
   <i type="int" name="NEDOS">   301</i>
   <i name="EMIN">     10.00000000</i>
   <i name="EMAX">    -10.00000000</i>
   <i name="EFERMI">      0.00000000</i>
  </separator>
  <separator name="writing" >
   <i type="int" name="NWRITE">     2</i>
   <i type="logical" name="LWAVE"> F  </i>
   <i type="logical" name="LDOWNSAMPLE"> F  </i>
   <i type="logical" name="LCHARG"> F  </i>
   <i type="logical" name="LPARD"> F  </i>
   <i type="logical" name="LVTOT"> F  </i>
   <i type="logical" name="LVHAR"> F  </i>
   <i type="logical" name="LELF"> F  </i>
   <i type="logical" name="LOPTICS"> F  </i>
   <v name="STM">      0.00000000      0.00000000      0.00000000      0.00000000      0.00000000      0.00000000      0.00000000</v>
  </separator>
  <separator name="performance" >
   <i type="int" name="NPAR">    16</i>
   <i type="int" name="NSIM">     4</i>
   <i type="int" name="NBLK">    -1</i>
   <i type="logical" name="LPLANE"> T  </i>
   <i type="logical" name="LSCALAPACK"> T  </i>
   <i type="logical" name="LSCAAWARE"> F  </i>
   <i type="logical" name="LSCALU"> F  </i>
   <i type="logical" name="LASYNC"> F  </i>
   <i type="logical" name="LORBITALREAL"> F  </i>
  </separator>
  <separator name="miscellaneous" >
   <i type="int" name="IDIOT">     3</i>
   <i type="int" name="ISPECIAL">     0</i>
   <i type="logical" name="LMUSIC"> F  </i>
   <v name="POMASS">     28.08500000</v>
   <v name="DARWINR">      0.00000000</v>
   <v name="DARWINV">      1.00000000</v>
   <i type="logical" name="LCORR"> T  </i>
  </separator>
  <i type="logical" name="GGA_COMPAT"> T  </i>
  <i type="logical" name="LBERRY"> F  </i>
  <i type="int" name="ICORELEVEL">     0</i>
  <i type="logical" name="LDAU"> F  </i>
  <i type="int" name="I_CONSTRAINED_M">     0</i>
  <separator name="electronic exchange-correlation" >
   <i type="string" name="GGA">--</i>
   <i type="int" name="VOSKOWN">     0</i>
   <i type="logical" name="LHFCALC"> F  </i>
   <i type="string" name="PRECFOCK"></i>
   <i type="logical" name="LSYMGRAD"> F  </i>
   <i type="logical" name="LHFONE"> F  </i>
   <i type="logical" name="LRHFCALC"> F  </i>
   <i type="logical" name="LTHOMAS"> F  </i>
   <i type="logical" name="LMODELHF"> F  </i>
   <i name="ENCUT4O">     -1.00000000</i>
   <i type="int" name="EXXOEP">     0</i>
   <i type="int" name="FOURORBIT">     0</i>
   <i name="AEXX">      0.00000000</i>
   <i name="HFALPHA">      0.00000000</i>
   <i name="MCALPHA">      0.00000000</i>
   <i name="ALDAX">      1.00000000</i>
   <i name="AGGAX">      1.00000000</i>
   <i name="ALDAC">      1.00000000</i>
   <i name="AGGAC">      1.00000000</i>
   <i type="int" name="NKREDX">     1</i>
   <i type="int" name="NKREDY">     1</i>
   <i type="int" name="NKREDZ">     1</i>
   <i type="logical" name="SHIFTRED"> F  </i>
   <i type="logical" name="ODDONLY"> F  </i>
   <i type="logical" name="EVENONLY"> F  </i>
   <i type="int" name="LMAXFOCK">     0</i>
   <i type="int" name="NMAXFOCKAE">     0</i>
   <i type="logical" name="LFOCKAEDFT"> F  </i>
   <i name="HFSCREEN">      0.00000000</i>
   <i name="HFSCREENC">      0.00000000</i>
   <i type="int" name="NBANDSGWLOW">     0</i>
  </separator>
  <separator name="vdW DFT" >
   <i type="logical" name="LUSE_VDW"> F  </i>
   <i name="Zab_VDW">     -0.84910000</i>
   <i name="PARAM1">      0.12340000</i>
   <i name="PARAM2">      1.00000000</i>
   <i name="PARAM3">      0.00000000</i>
  </separator>
  <separator name="model GW" >
   <i type="int" name="MODEL_GW">     0</i>
   <i name="MODEL_EPS0">      6.38879919</i>
   <i name="MODEL_ALPHA">      1.00000000</i>
  </separator>
  <separator name="linear response parameters" >
   <i type="logical" name="LEPSILON"> F  </i>
   <i type="logical" name="LRPA"> F  </i>
   <i type="logical" name="LNABLA"> F  </i>
   <i type="logical" name="LVEL"> F  </i>
   <i type="int" name="KINTER">     0</i>
   <i name="CSHIFT">      0.10000000</i>
   <i name="OMEGAMAX">     -1.00000000</i>
   <i name="DEG_THRESHOLD">      0.00200000</i>
   <i name="RTIME">     -0.10000000</i>
   <i name="WPLASMAI">      0.00000000</i>
   <v name="DFIELD">      0.00000000      0.00000000      0.00000000</v>
   <v name="WPLASMA">      0.00000000      0.00000000      0.00000000      0.00000000      0.00000000      0.00000000      0.00000000      0.00000000      0.00000000</v>
  </separator>
  <separator name="orbital magnetization" >
   <i type="logical" name="NUCIND"> F  </i>
   <v name="MAGPOS">      0.00000000      0.00000000      0.00000000</v>
   <i type="logical" name="LNICSALL"> T  </i>
   <i type="logical" name="ORBITALMAG"> F  </i>
   <i type="logical" name="LMAGBLOCH"> F  </i>
   <i type="logical" name="LCHIMAG"> F  </i>
   <i type="logical" name="LGAUGE"> T  </i>
   <i type="int" name="MAGATOM">     0</i>
   <v name="MAGDIPOL">      0.00000000      0.00000000      0.00000000</v>
   <v name="AVECCONST">      0.00000000      0.00000000      0.00000000</v>
  </separator>
  <separator name="response functions" >
   <i type="logical" name="LADDER"> F  </i>
   <i type="logical" name="LRPAFORCE"> F  </i>
   <i type="logical" name="LFXC"> F  </i>
   <i type="logical" name="LHARTREE"> T  </i>
   <i type="int" name="IBSE">     0</i>
   <v type="int" name="KPOINT">    -1     0     0     0</v>
   <i type="logical" name="LTCTE"> F  </i>
   <i type="logical" name="LTETE"> F  </i>
   <i type="logical" name="LTRIPLET"> F  </i>
   <i type="logical" name="LFXCEPS"> F  </i>
   <i type="logical" name="LFXHEG"> F  </i>
   <i type="int" name="NATURALO">     2</i>
   <i type="logical" name="L2ORDER"> F  </i>
   <i type="logical" name="LMP2LT"> F  </i>
   <i type="logical" name="LUSEW"> F  </i>
   <i name="ENCUTGW">     -2.00000000</i>
   <i name="ENCUTGWSOFT">     -2.00000000</i>
   <i name="ENCUTLF">     -1.00000000</i>
   <i type="int" name="LMAXMP2">    -1</i>
   <i name="SCISSOR">      0.00000000</i>
   <i type="int" name="NOMEGA">     0</i>
   <i type="int" name="NOMEGAR">     0</i>
   <i type="int" name="NBANDSGW">    -1</i>
   <i type="int" name="NBANDSO">    -1</i>
   <i type="int" name="NBANDSV">    -1</i>
   <i type="int" name="NELM">    60</i>
   <i type="int" name="NELMHF">     1</i>
   <i type="int" name="DIM">     3</i>
   <i type="int" name="ANTIRES">     0</i>
   <i name="OMEGAMAX">    -30.00000000</i>
   <i name="OMEGAMIN">    -30.00000000</i>
   <i name="OMEGATL">   -200.00000000</i>
   <i type="int" name="OMEGAGRID">   140</i>
   <i name="CSHIFT">     -0.10000000</i>
   <i type="logical" name="SELFENERGY"> F  </i>
   <i type="logical" name="LSPECTRAL"> F  </i>
   <i type="logical" name="LSPECTRALGW"> F  </i>
   <i type="logical" name="LSINGLES"> F  </i>
   <i type="logical" name="LFERMIGW"> F  </i>
   <i type="logical" name="ODDONLYGW"> F  </i>
   <i type="logical" name="EVENONLYGW"> F  </i>
   <i type="int" name="NKREDLFX">     1</i>
   <i type="int" name="NKREDLFY">     1</i>
   <i type="int" name="NKREDLFZ">     1</i>
   <i type="int" name="MAXMEM">  2800</i>
   <i type="int" name="TELESCOPE">     0</i>
   <i type="int" name="TAUPAR">     1</i>
   <i type="int" name="OMEGAPAR">    -1</i>
   <i name="LAMBDA">      1.00000000</i>
  </separator>
  <separator name="External order field" >
   <i name="OFIELD_KAPPA">      0.00000000</i>
   <v name="OFIELD_K">      0.00000000      0.00000000      0.00000000</v>
   <i name="OFIELD_Q6_NEAR">      0.00000000</i>
   <i name="OFIELD_Q6_FAR">      0.00000000</i>
   <i name="OFIELD_A">      0.00000000</i>
  </separator>
 </parameters>
 <atominfo>
  <atoms>     100 </atoms>
  <types>       1 </types>
  <array name="atoms" >
   <dimension dim="1">ion</dimension>
   <field type="string">element</field>
   <field type="int">atomtype</field>
   <set>
    <rc><c>Si</c><c>   1</c></rc>
    <rc><c>Si</c><c>   1</c></rc>
    <rc><c>Si</c><c>   1</c></rc>
    <rc><c>Si</c><c>   1</c></rc>
    <rc><c>Si</c><c>   1</c></rc>
    <rc><c>Si</c><c>   1</c></rc>
    <rc><c>Si</c><c>   1</c></rc>
    <rc><c>Si</c><c>   1</c></rc>
    <rc><c>Si</c><c>   1</c></rc>
    <rc><c>Si</c><c>   1</c></rc>
    <rc><c>Si</c><c>   1</c></rc>
    <rc><c>Si</c><c>   1</c></rc>
    <rc><c>Si</c><c>   1</c></rc>
    <rc><c>Si</c><c>   1</c></rc>
    <rc><c>Si</c><c>   1</c></rc>
    <rc><c>Si</c><c>   1</c></rc>
    <rc><c>Si</c><c>   1</c></rc>
    <rc><c>Si</c><c>   1</c></rc>
    <rc><c>Si</c><c>   1</c></rc>
    <rc><c>Si</c><c>   1</c></rc>
    <rc><c>Si</c><c>   1</c></rc>
    <rc><c>Si</c><c>   1</c></rc>
    <rc><c>Si</c><c>   1</c></rc>
    <rc><c>Si</c><c>   1</c></rc>
    <rc><c>Si</c><c>   1</c></rc>
    <rc><c>Si</c><c>   1</c></rc>
    <rc><c>Si</c><c>   1</c></rc>
    <rc><c>Si</c><c>   1</c></rc>
    <rc><c>Si</c><c>   1</c></rc>
    <rc><c>Si</c><c>   1</c></rc>
    <rc><c>Si</c><c>   1</c></rc>
    <rc><c>Si</c><c>   1</c></rc>
    <rc><c>Si</c><c>   1</c></rc>
    <rc><c>Si</c><c>   1</c></rc>
    <rc><c>Si</c><c>   1</c></rc>
    <rc><c>Si</c><c>   1</c></rc>
    <rc><c>Si</c><c>   1</c></rc>
    <rc><c>Si</c><c>   1</c></rc>
    <rc><c>Si</c><c>   1</c></rc>
    <rc><c>Si</c><c>   1</c></rc>
    <rc><c>Si</c><c>   1</c></rc>
    <rc><c>Si</c><c>   1</c></rc>
    <rc><c>Si</c><c>   1</c></rc>
    <rc><c>Si</c><c>   1</c></rc>
    <rc><c>Si</c><c>   1</c></rc>
    <rc><c>Si</c><c>   1</c></rc>
    <rc><c>Si</c><c>   1</c></rc>
    <rc><c>Si</c><c>   1</c></rc>
    <rc><c>Si</c><c>   1</c></rc>
    <rc><c>Si</c><c>   1</c></rc>
    <rc><c>Si</c><c>   1</c></rc>
    <rc><c>Si</c><c>   1</c></rc>
    <rc><c>Si</c><c>   1</c></rc>
    <rc><c>Si</c><c>   1</c></rc>
    <rc><c>Si</c><c>   1</c></rc>
    <rc><c>Si</c><c>   1</c></rc>
    <rc><c>Si</c><c>   1</c></rc>
    <rc><c>Si</c><c>   1</c></rc>
    <rc><c>Si</c><c>   1</c></rc>
    <rc><c>Si</c><c>   1</c></rc>
    <rc><c>Si</c><c>   1</c></rc>
    <rc><c>Si</c><c>   1</c></rc>
    <rc><c>Si</c><c>   1</c></rc>
    <rc><c>Si</c><c>   1</c></rc>
    <rc><c>Si</c><c>   1</c></rc>
    <rc><c>Si</c><c>   1</c></rc>
    <rc><c>Si</c><c>   1</c></rc>
    <rc><c>Si</c><c>   1</c></rc>
    <rc><c>Si</c><c>   1</c></rc>
    <rc><c>Si</c><c>   1</c></rc>
    <rc><c>Si</c><c>   1</c></rc>
    <rc><c>Si</c><c>   1</c></rc>
    <rc><c>Si</c><c>   1</c></rc>
    <rc><c>Si</c><c>   1</c></rc>
    <rc><c>Si</c><c>   1</c></rc>
    <rc><c>Si</c><c>   1</c></rc>
    <rc><c>Si</c><c>   1</c></rc>
    <rc><c>Si</c><c>   1</c></rc>
    <rc><c>Si</c><c>   1</c></rc>
    <rc><c>Si</c><c>   1</c></rc>
    <rc><c>Si</c><c>   1</c></rc>
    <rc><c>Si</c><c>   1</c></rc>
    <rc><c>Si</c><c>   1</c></rc>
    <rc><c>Si</c><c>   1</c></rc>
    <rc><c>Si</c><c>   1</c></rc>
    <rc><c>Si</c><c>   1</c></rc>
    <rc><c>Si</c><c>   1</c></rc>
    <rc><c>Si</c><c>   1</c></rc>
    <rc><c>Si</c><c>   1</c></rc>
    <rc><c>Si</c><c>   1</c></rc>
    <rc><c>Si</c><c>   1</c></rc>
    <rc><c>Si</c><c>   1</c></rc>
    <rc><c>Si</c><c>   1</c></rc>
    <rc><c>Si</c><c>   1</c></rc>
    <rc><c>Si</c><c>   1</c></rc>
    <rc><c>Si</c><c>   1</c></rc>
    <rc><c>Si</c><c>   1</c></rc>
    <rc><c>Si</c><c>   1</c></rc>
    <rc><c>Si</c><c>   1</c></rc>
    <rc><c>Si</c><c>   1</c></rc>
   </set>
  </array>
  <array name="atomtypes" >
   <dimension dim="1">type</dimension>
   <field type="int">atomspertype</field>
   <field type="string">element</field>
   <field>mass</field>
   <field>valence</field>
   <field type="string">pseudopotential</field>
   <set>
    <rc><c> 100</c><c>Si</c><c>     28.08500000</c><c>      4.00000000</c><c>  PAW_PBE Si 05Jan2001                  </c></rc>
   </set>
  </array>
 </atominfo>
 <structure name="initialpos" >
  <crystal>
   <varray name="basis" >
    <v>      10.21149500       0.00000000       0.00000000 </v>
    <v>       0.00000000      10.21149500       0.00000000 </v>
    <v>       0.00000000       0.00000000      10.21149500 </v>
   </varray>
   <i name="volume">   1064.79986425 </i>
   <varray name="rec_basis" >
    <v>       0.09792885       0.00000000       0.00000000 </v>
    <v>       0.00000000       0.09792885       0.00000000 </v>
    <v>       0.00000000       0.00000000       0.09792885 </v>
   </varray>
  </crystal>
  <varray name="positions" >
   <v>       0.80000000       0.60000000       0.20000000 </v>
   <v>       0.80000000       0.80000000       0.00000000 </v>
   <v>       0.60000000       0.20000000       0.40000000 </v>
   <v>       0.80000000       0.20000000       0.80000000 </v>
   <v>       0.40000000       0.00000000       0.40000000 </v>
   <v>       0.60000000       0.80000000       0.80000000 </v>
   <v>       0.60000000       0.60000000       0.40000000 </v>
   <v>       0.60000000       0.60000000       0.20000000 </v>
   <v>       0.40000000       0.00000000       0.20000000 </v>
   <v>       0.00000000       0.00000000       0.00000000 </v>
   <v>       0.20000000       0.20000000       0.40000000 </v>
   <v>       0.80000000       0.20000000       0.40000000 </v>
   <v>       0.00000000       0.20000000       0.80000000 </v>
   <v>       0.80000000       0.20000000       0.60000000 </v>
   <v>       0.00000000       0.20000000       0.60000000 </v>
   <v>       0.20000000       0.00000000       0.40000000 </v>
   <v>       0.00000000       0.00000000       0.60000000 </v>
   <v>       0.20000000       0.20000000       0.00000000 </v>
   <v>       0.40000000       0.20000000       0.40000000 </v>
   <v>       0.60000000       0.80000000       0.40000000 </v>
   <v>       0.60000000       0.80000000       0.00000000 </v>
   <v>       0.00000000       0.40000000       0.60000000 </v>
   <v>       0.60000000       0.20000000       0.00000000 </v>
   <v>       0.40000000       0.60000000       0.40000000 </v>
   <v>       0.80000000       0.00000000       0.40000000 </v>
   <v>       0.00000000       0.40000000       0.20000000 </v>
   <v>       0.20000000       0.00000000       0.00000000 </v>
   <v>       0.20000000       0.40000000       0.40000000 </v>
   <v>       0.40000000       0.40000000       0.00000000 </v>
   <v>       0.60000000       0.00000000       0.80000000 </v>
   <v>       0.60000000       0.00000000       0.40000000 </v>
   <v>       0.20000000       0.00000000       0.80000000 </v>
   <v>       0.20000000       0.80000000       0.00000000 </v>
   <v>       0.20000000       0.60000000       0.40000000 </v>
   <v>       0.20000000       0.40000000       0.20000000 </v>
   <v>       0.00000000       0.80000000       0.00000000 </v>
   <v>       0.40000000       0.80000000       0.20000000 </v>
   <v>       0.80000000       0.60000000       0.40000000 </v>
   <v>       0.00000000       0.20000000       0.20000000 </v>
   <v>       0.40000000       0.00000000       0.00000000 </v>
   <v>       0.60000000       0.60000000       0.00000000 </v>
   <v>       0.60000000       0.40000000       0.60000000 </v>
   <v>       0.00000000       0.00000000       0.20000000 </v>
   <v>       0.00000000       0.60000000       0.60000000 </v>
   <v>       0.40000000       0.20000000       0.60000000 </v>
   <v>       0.20000000       0.40000000       0.60000000 </v>
   <v>       0.80000000       0.20000000       0.20000000 </v>
   <v>       0.60000000       0.20000000       0.60000000 </v>
   <v>       0.40000000       0.20000000       0.80000000 </v>
   <v>       0.80000000       0.00000000       0.00000000 </v>
   <v>       0.20000000       0.20000000       0.80000000 </v>
   <v>       0.20000000       0.60000000       0.20000000 </v>
   <v>       0.40000000       0.00000000       0.80000000 </v>
   <v>       0.00000000       0.60000000       0.80000000 </v>
   <v>       0.40000000       0.40000000       0.20000000 </v>
   <v>       0.00000000       0.80000000       0.80000000 </v>
   <v>       0.20000000       0.60000000       0.60000000 </v>
   <v>       0.80000000       0.80000000       0.40000000 </v>
   <v>       0.20000000       0.60000000       0.00000000 </v>
   <v>       0.60000000       0.00000000       0.60000000 </v>
   <v>       0.60000000       0.00000000       0.00000000 </v>
   <v>       0.20000000       0.00000000       0.60000000 </v>
   <v>       0.60000000       0.60000000       0.60000000 </v>
   <v>       0.20000000       0.80000000       0.20000000 </v>
   <v>       0.40000000       0.40000000       0.80000000 </v>
   <v>       0.20000000       0.00000000       0.20000000 </v>
   <v>       0.00000000       0.60000000       0.40000000 </v>
   <v>       0.20000000       0.20000000       0.60000000 </v>
   <v>       0.80000000       0.60000000       0.80000000 </v>
   <v>       0.80000000       0.80000000       0.80000000 </v>
   <v>       0.60000000       0.20000000       0.80000000 </v>
   <v>       0.20000000       0.60000000       0.80000000 </v>
   <v>       0.20000000       0.80000000       0.80000000 </v>
   <v>       0.60000000       0.80000000       0.60000000 </v>
   <v>       0.60000000       0.40000000       0.00000000 </v>
   <v>       0.40000000       0.80000000       0.40000000 </v>
   <v>       0.40000000       0.80000000       0.00000000 </v>
   <v>       0.40000000       0.40000000       0.40000000 </v>
   <v>       0.00000000       0.60000000       0.00000000 </v>
   <v>       0.60000000       0.60000000       0.80000000 </v>
   <v>       0.60000000       0.40000000       0.40000000 </v>
   <v>       0.20000000       0.80000000       0.40000000 </v>
   <v>       0.80000000       0.00000000       0.80000000 </v>
   <v>       0.40000000       0.60000000       0.60000000 </v>
   <v>       0.40000000       0.20000000       0.00000000 </v>
   <v>       0.40000000       0.20000000       0.20000000 </v>
   <v>       0.40000000       0.60000000       0.00000000 </v>
   <v>       0.80000000       0.00000000       0.60000000 </v>
   <v>       0.40000000       0.80000000       0.80000000 </v>
   <v>       0.60000000       0.00000000       0.20000000 </v>
   <v>       0.40000000       0.00000000       0.60000000 </v>
   <v>       0.60000000       0.40000000       0.20000000 </v>
   <v>       0.40000000       0.80000000       0.60000000 </v>
   <v>       0.80000000       0.40000000       0.00000000 </v>
   <v>       0.00000000       0.80000000       0.40000000 </v>
   <v>       0.00000000       0.20000000       0.00000000 </v>
   <v>       0.20000000       0.40000000       0.00000000 </v>
   <v>       0.00000000       0.80000000       0.60000000 </v>
   <v>       0.20000000       0.80000000       0.60000000 </v>
   <v>       0.20000000       0.20000000       0.20000000 </v>
  </varray>
  <varray name="velocities" >
   <v>       0.00000000       0.00000000       0.00000000 </v>
   <v>       0.00000000       0.00000000       0.00000000 </v>
   <v>       0.00000000       0.00000000       0.00000000 </v>
   <v>       0.00000000       0.00000000       0.00000000 </v>
   <v>       0.00000000       0.00000000       0.00000000 </v>
   <v>       0.00000000       0.00000000       0.00000000 </v>
   <v>       0.00000000       0.00000000       0.00000000 </v>
   <v>       0.00000000       0.00000000       0.00000000 </v>
   <v>       0.00000000       0.00000000       0.00000000 </v>
   <v>       0.00000000       0.00000000       0.00000000 </v>
   <v>       0.00000000       0.00000000       0.00000000 </v>
   <v>       0.00000000       0.00000000       0.00000000 </v>
   <v>       0.00000000       0.00000000       0.00000000 </v>
   <v>       0.00000000       0.00000000       0.00000000 </v>
   <v>       0.00000000       0.00000000       0.00000000 </v>
   <v>       0.00000000       0.00000000       0.00000000 </v>
   <v>       0.00000000       0.00000000       0.00000000 </v>
   <v>       0.00000000       0.00000000       0.00000000 </v>
   <v>       0.00000000       0.00000000       0.00000000 </v>
   <v>       0.00000000       0.00000000       0.00000000 </v>
   <v>       0.00000000       0.00000000       0.00000000 </v>
   <v>       0.00000000       0.00000000       0.00000000 </v>
   <v>       0.00000000       0.00000000       0.00000000 </v>
   <v>       0.00000000       0.00000000       0.00000000 </v>
   <v>       0.00000000       0.00000000       0.00000000 </v>
   <v>       0.00000000       0.00000000       0.00000000 </v>
   <v>       0.00000000       0.00000000       0.00000000 </v>
   <v>       0.00000000       0.00000000       0.00000000 </v>
   <v>       0.00000000       0.00000000       0.00000000 </v>
   <v>       0.00000000       0.00000000       0.00000000 </v>
   <v>       0.00000000       0.00000000       0.00000000 </v>
   <v>       0.00000000       0.00000000       0.00000000 </v>
   <v>       0.00000000       0.00000000       0.00000000 </v>
   <v>       0.00000000       0.00000000       0.00000000 </v>
   <v>       0.00000000       0.00000000       0.00000000 </v>
   <v>       0.00000000       0.00000000       0.00000000 </v>
   <v>       0.00000000       0.00000000       0.00000000 </v>
   <v>       0.00000000       0.00000000       0.00000000 </v>
   <v>       0.00000000       0.00000000       0.00000000 </v>
   <v>       0.00000000       0.00000000       0.00000000 </v>
   <v>       0.00000000       0.00000000       0.00000000 </v>
   <v>       0.00000000       0.00000000       0.00000000 </v>
   <v>       0.00000000       0.00000000       0.00000000 </v>
   <v>       0.00000000       0.00000000       0.00000000 </v>
   <v>       0.00000000       0.00000000       0.00000000 </v>
   <v>       0.00000000       0.00000000       0.00000000 </v>
   <v>       0.00000000       0.00000000       0.00000000 </v>
   <v>       0.00000000       0.00000000       0.00000000 </v>
   <v>       0.00000000       0.00000000       0.00000000 </v>
   <v>       0.00000000       0.00000000       0.00000000 </v>
   <v>       0.00000000       0.00000000       0.00000000 </v>
   <v>       0.00000000       0.00000000       0.00000000 </v>
   <v>       0.00000000       0.00000000       0.00000000 </v>
   <v>       0.00000000       0.00000000       0.00000000 </v>
   <v>       0.00000000       0.00000000       0.00000000 </v>
   <v>       0.00000000       0.00000000       0.00000000 </v>
   <v>       0.00000000       0.00000000       0.00000000 </v>
   <v>       0.00000000       0.00000000       0.00000000 </v>
   <v>       0.00000000       0.00000000       0.00000000 </v>
   <v>       0.00000000       0.00000000       0.00000000 </v>
   <v>       0.00000000       0.00000000       0.00000000 </v>
   <v>       0.00000000       0.00000000       0.00000000 </v>
   <v>       0.00000000       0.00000000       0.00000000 </v>
   <v>       0.00000000       0.00000000       0.00000000 </v>
   <v>       0.00000000       0.00000000       0.00000000 </v>
   <v>       0.00000000       0.00000000       0.00000000 </v>
   <v>       0.00000000       0.00000000       0.00000000 </v>
   <v>       0.00000000       0.00000000       0.00000000 </v>
   <v>       0.00000000       0.00000000       0.00000000 </v>
   <v>       0.00000000       0.00000000       0.00000000 </v>
   <v>       0.00000000       0.00000000       0.00000000 </v>
   <v>       0.00000000       0.00000000       0.00000000 </v>
   <v>       0.00000000       0.00000000       0.00000000 </v>
   <v>       0.00000000       0.00000000       0.00000000 </v>
   <v>       0.00000000       0.00000000       0.00000000 </v>
   <v>       0.00000000       0.00000000       0.00000000 </v>
   <v>       0.00000000       0.00000000       0.00000000 </v>
   <v>       0.00000000       0.00000000       0.00000000 </v>
   <v>       0.00000000       0.00000000       0.00000000 </v>
   <v>       0.00000000       0.00000000       0.00000000 </v>
   <v>       0.00000000       0.00000000       0.00000000 </v>
   <v>       0.00000000       0.00000000       0.00000000 </v>
   <v>       0.00000000       0.00000000       0.00000000 </v>
   <v>       0.00000000       0.00000000       0.00000000 </v>
   <v>       0.00000000       0.00000000       0.00000000 </v>
   <v>       0.00000000       0.00000000       0.00000000 </v>
   <v>       0.00000000       0.00000000       0.00000000 </v>
   <v>       0.00000000       0.00000000       0.00000000 </v>
   <v>       0.00000000       0.00000000       0.00000000 </v>
   <v>       0.00000000       0.00000000       0.00000000 </v>
   <v>       0.00000000       0.00000000       0.00000000 </v>
   <v>       0.00000000       0.00000000       0.00000000 </v>
   <v>       0.00000000       0.00000000       0.00000000 </v>
   <v>       0.00000000       0.00000000       0.00000000 </v>
   <v>       0.00000000       0.00000000       0.00000000 </v>
   <v>       0.00000000       0.00000000       0.00000000 </v>
   <v>       0.00000000       0.00000000       0.00000000 </v>
   <v>       0.00000000       0.00000000       0.00000000 </v>
   <v>       0.00000000       0.00000000       0.00000000 </v>
   <v>       0.00000000       0.00000000       0.00000000 </v>
  </varray>
 </structure>
 <calculation>
  <scstep>
   <time name="dav">    1.70    1.71</time>
   <time name="total">    1.78    1.86</time>
   <energy>
    <i name="alphaZ">    316.14514549 </i>
    <i name="ewald"> -12947.38204056 </i>
    <i name="hartreedc">  -1458.60698500 </i>
    <i name="XCdc">   -762.14367111 </i>
    <i name="pawpsdc">   8803.41707833 </i>
    <i name="pawaedc">  -7043.47671478 </i>
    <i name="eentropy">     -0.02254373 </i>
    <i name="bandstr">   3708.56997940 </i>
    <i name="atom">  10306.12861560 </i>
    <i name="e_fr_energy">    922.62886364 </i>
    <i name="e_wo_entrp">    922.65140737 </i>
    <i name="e_0_energy">    922.64013551 </i>
   </energy>
  </scstep>
  <scstep>
   <time name="dav">    1.99    2.01</time>
   <time name="total">    1.99    2.01</time>
   <energy>
    <i name="e_fr_energy">   -205.68061299 </i>
    <i name="e_wo_entrp">   -205.63260072 </i>
    <i name="e_0_energy">   -205.65660685 </i>
   </energy>
  </scstep>
  <scstep>
   <time name="dav">    2.00    2.01</time>
   <time name="total">    2.00    2.01</time>
   <energy>
    <i name="e_fr_energy">   -266.14365942 </i>
    <i name="e_wo_entrp">   -266.08142234 </i>
    <i name="e_0_energy">   -266.11254088 </i>
   </energy>
  </scstep>
  <scstep>
   <time name="dav">    2.06    2.08</time>
   <time name="total">    2.06    2.08</time>
   <energy>
    <i name="e_fr_energy">   -267.56714492 </i>
    <i name="e_wo_entrp">   -267.50621743 </i>
    <i name="e_0_energy">   -267.53668118 </i>
   </energy>
  </scstep>
  <scstep>
   <time name="dav">    1.98    1.99</time>
   <time name="total">    2.02    2.03</time>
   <energy>
    <i name="e_fr_energy">   -267.60098801 </i>
    <i name="e_wo_entrp">   -267.54009003 </i>
    <i name="e_0_energy">   -267.57053902 </i>
   </energy>
  </scstep>
  <scstep>
   <time name="diag">    0.28    0.29</time>
   <time name="diis">    0.63    0.63</time>
   <time name="orth">    0.09    0.09</time>
   <time name="total">    1.11    1.12</time>
   <energy>
    <i name="e_fr_energy">   -250.57964151 </i>
    <i name="e_wo_entrp">   -250.54526836 </i>
    <i name="e_0_energy">   -250.56245493 </i>
   </energy>
  </scstep>
  <scstep>
   <time name="diag">    0.28    0.29</time>
   <time name="diis">    0.63    0.64</time>
   <time name="orth">    0.09    0.09</time>
   <time name="total">    1.12    1.12</time>
   <energy>
    <i name="e_fr_energy">   -249.79526486 </i>
    <i name="e_wo_entrp">   -249.73998381 </i>
    <i name="e_0_energy">   -249.76762434 </i>
   </energy>
  </scstep>
  <scstep>
   <time name="diag">    0.28    0.29</time>
   <time name="diis">    0.63    0.64</time>
   <time name="orth">    0.09    0.09</time>
   <time name="total">    1.11    1.12</time>
   <energy>
    <i name="e_fr_energy">   -252.00122563 </i>
    <i name="e_wo_entrp">   -251.95205197 </i>
    <i name="e_0_energy">   -251.97663880 </i>
   </energy>
  </scstep>
  <scstep>
   <time name="diag">    0.28    0.29</time>
   <time name="diis">    0.63    0.64</time>
   <time name="orth">    0.09    0.09</time>
   <time name="total">    1.12    1.12</time>
   <energy>
    <i name="e_fr_energy">   -252.18269783 </i>
    <i name="e_wo_entrp">   -252.14333534 </i>
    <i name="e_0_energy">   -252.16301659 </i>
   </energy>
  </scstep>
  <scstep>
   <time name="diag">    0.28    0.29</time>
   <time name="diis">    0.64    0.64</time>
   <time name="orth">    0.09    0.09</time>
   <time name="total">    1.12    1.12</time>
   <energy>
    <i name="e_fr_energy">   -252.19710978 </i>
    <i name="e_wo_entrp">   -252.15775160 </i>
    <i name="e_0_energy">   -252.17743069 </i>
   </energy>
  </scstep>
  <scstep>
   <time name="diag">    0.29    0.29</time>
   <time name="diis">    0.63    0.64</time>
   <time name="orth">    0.09    0.09</time>
   <time name="total">    1.12    1.12</time>
   <energy>
    <i name="e_fr_energy">   -252.21748459 </i>
    <i name="e_wo_entrp">   -252.17706352 </i>
    <i name="e_0_energy">   -252.19727405 </i>
   </energy>
  </scstep>
  <scstep>
   <time name="diag">    0.29    0.29</time>
   <time name="diis">    0.63    0.63</time>
   <time name="orth">    0.09    0.09</time>
   <time name="total">    1.11    1.12</time>
   <energy>
    <i name="e_fr_energy">   -252.22667465 </i>
    <i name="e_wo_entrp">   -252.18368124 </i>
    <i name="e_0_energy">   -252.20517795 </i>
   </energy>
  </scstep>
  <scstep>
   <time name="diag">    0.28    0.29</time>
   <time name="diis">    0.63    0.64</time>
   <time name="orth">    0.09    0.09</time>
   <time name="total">    1.11    1.12</time>
   <energy>
    <i name="e_fr_energy">   -252.22917496 </i>
    <i name="e_wo_entrp">   -252.18534534 </i>
    <i name="e_0_energy">   -252.20726015 </i>
   </energy>
  </scstep>
  <scstep>
   <time name="diag">    0.29    0.29</time>
   <time name="diis">    0.63    0.63</time>
   <time name="orth">    0.09    0.09</time>
   <time name="total">    1.11    1.12</time>
   <energy>
    <i name="e_fr_energy">   -252.22981280 </i>
    <i name="e_wo_entrp">   -252.18586138 </i>
    <i name="e_0_energy">   -252.20783709 </i>
   </energy>
  </scstep>
  <scstep>
   <time name="diag">    0.29    0.29</time>
   <time name="diis">    0.63    0.64</time>
   <time name="orth">    0.09    0.09</time>
   <time name="total">    1.12    1.12</time>
   <energy>
    <i name="e_fr_energy">   -252.23001582 </i>
    <i name="e_wo_entrp">   -252.18594661 </i>
    <i name="e_0_energy">   -252.20798122 </i>
   </energy>
  </scstep>
  <scstep>
   <time name="diag">    0.29    0.29</time>
   <time name="diis">    0.66    0.66</time>
   <time name="orth">    0.09    0.09</time>
   <time name="total">    1.14    1.15</time>
   <energy>
    <i name="e_fr_energy">   -252.23008936 </i>
    <i name="e_wo_entrp">   -252.18604619 </i>
    <i name="e_0_energy">   -252.20806778 </i>
   </energy>
  </scstep>
  <scstep>
   <time name="diag">    0.29    0.29</time>
   <time name="diis">    0.51    0.52</time>
   <time name="orth">    0.09    0.09</time>
   <time name="total">    1.00    1.00</time>
   <energy>
    <i name="e_fr_energy">   -252.23010368 </i>
    <i name="e_wo_entrp">   -252.18604320 </i>
    <i name="e_0_energy">   -252.20807344 </i>
   </energy>
  </scstep>
  <scstep>
   <time name="diag">    0.29    0.29</time>
   <time name="diis">    0.44    0.44</time>
   <time name="orth">    0.09    0.09</time>
   <time name="total">    0.88    0.89</time>
   <energy>
    <i name="alphaZ">    316.14514549 </i>
    <i name="ewald"> -12947.38204056 </i>
    <i name="hartreedc">  -1665.73834308 </i>
    <i name="XCdc">   -742.19193575 </i>
    <i name="pawpsdc"> 153581.81289634 </i>
    <i name="pawaedc">-151859.79147481 </i>
    <i name="eentropy">     -0.04404997 </i>
    <i name="bandstr">   2758.83108277 </i>
    <i name="atom">  10306.12861560 </i>
    <i name="e_fr_energy">   -252.23010397 </i>
    <i name="e_wo_entrp">   -252.18605400 </i>
    <i name="e_0_energy">   -252.20807898 </i>
   </energy>
  </scstep>
  <structure>
   <crystal>
    <varray name="basis" >
     <v>      10.21149500       0.00000000       0.00000000 </v>
     <v>       0.00000000      10.21149500       0.00000000 </v>
     <v>       0.00000000       0.00000000      10.21149500 </v>
    </varray>
    <i name="volume">   1064.79986425 </i>
    <varray name="rec_basis" >
     <v>       0.09792885       0.00000000       0.00000000 </v>
     <v>       0.00000000       0.09792885       0.00000000 </v>
     <v>       0.00000000       0.00000000       0.09792885 </v>
    </varray>
   </crystal>
   <varray name="positions" >
    <v>       0.80000000       0.60000000       0.20000000 </v>
    <v>       0.80000000       0.80000000       0.00000000 </v>
    <v>       0.60000000       0.20000000       0.40000000 </v>
    <v>       0.80000000       0.20000000       0.80000000 </v>
    <v>       0.40000000       0.00000000       0.40000000 </v>
    <v>       0.60000000       0.80000000       0.80000000 </v>
    <v>       0.60000000       0.60000000       0.40000000 </v>
    <v>       0.60000000       0.60000000       0.20000000 </v>
    <v>       0.40000000       0.00000000       0.20000000 </v>
    <v>       0.00000000       0.00000000       0.00000000 </v>
    <v>       0.20000000       0.20000000       0.40000000 </v>
    <v>       0.80000000       0.20000000       0.40000000 </v>
    <v>       0.00000000       0.20000000       0.80000000 </v>
    <v>       0.80000000       0.20000000       0.60000000 </v>
    <v>       0.00000000       0.20000000       0.60000000 </v>
    <v>       0.20000000       0.00000000       0.40000000 </v>
    <v>       0.00000000       0.00000000       0.60000000 </v>
    <v>       0.20000000       0.20000000       0.00000000 </v>
    <v>       0.40000000       0.20000000       0.40000000 </v>
    <v>       0.60000000       0.80000000       0.40000000 </v>
    <v>       0.60000000       0.80000000       0.00000000 </v>
    <v>       0.00000000       0.40000000       0.60000000 </v>
    <v>       0.60000000       0.20000000       0.00000000 </v>
    <v>       0.40000000       0.60000000       0.40000000 </v>
    <v>       0.80000000       0.00000000       0.40000000 </v>
    <v>       0.00000000       0.40000000       0.20000000 </v>
    <v>       0.20000000       0.00000000       0.00000000 </v>
    <v>       0.20000000       0.40000000       0.40000000 </v>
    <v>       0.40000000       0.40000000       0.00000000 </v>
    <v>       0.60000000       0.00000000       0.80000000 </v>
    <v>       0.60000000       0.00000000       0.40000000 </v>
    <v>       0.20000000       0.00000000       0.80000000 </v>
    <v>       0.20000000       0.80000000       0.00000000 </v>
    <v>       0.20000000       0.60000000       0.40000000 </v>
    <v>       0.20000000       0.40000000       0.20000000 </v>
    <v>       0.00000000       0.80000000       0.00000000 </v>
    <v>       0.40000000       0.80000000       0.20000000 </v>
    <v>       0.80000000       0.60000000       0.40000000 </v>
    <v>       0.00000000       0.20000000       0.20000000 </v>
    <v>       0.40000000       0.00000000       0.00000000 </v>
    <v>       0.60000000       0.60000000       0.00000000 </v>
    <v>       0.60000000       0.40000000       0.60000000 </v>
    <v>       0.00000000       0.00000000       0.20000000 </v>
    <v>       0.00000000       0.60000000       0.60000000 </v>
    <v>       0.40000000       0.20000000       0.60000000 </v>
    <v>       0.20000000       0.40000000       0.60000000 </v>
    <v>       0.80000000       0.20000000       0.20000000 </v>
    <v>       0.60000000       0.20000000       0.60000000 </v>
    <v>       0.40000000       0.20000000       0.80000000 </v>
    <v>       0.80000000       0.00000000       0.00000000 </v>
    <v>       0.20000000       0.20000000       0.80000000 </v>
    <v>       0.20000000       0.60000000       0.20000000 </v>
    <v>       0.40000000       0.00000000       0.80000000 </v>
    <v>       0.00000000       0.60000000       0.80000000 </v>
    <v>       0.40000000       0.40000000       0.20000000 </v>
    <v>       0.00000000       0.80000000       0.80000000 </v>
    <v>       0.20000000       0.60000000       0.60000000 </v>
    <v>       0.80000000       0.80000000       0.40000000 </v>
    <v>       0.20000000       0.60000000       0.00000000 </v>
    <v>       0.60000000       0.00000000       0.60000000 </v>
    <v>       0.60000000       0.00000000       0.00000000 </v>
    <v>       0.20000000       0.00000000       0.60000000 </v>
    <v>       0.60000000       0.60000000       0.60000000 </v>
    <v>       0.20000000       0.80000000       0.20000000 </v>
    <v>       0.40000000       0.40000000       0.80000000 </v>
    <v>       0.20000000       0.00000000       0.20000000 </v>
    <v>       0.00000000       0.60000000       0.40000000 </v>
    <v>       0.20000000       0.20000000       0.60000000 </v>
    <v>       0.80000000       0.60000000       0.80000000 </v>
    <v>       0.80000000       0.80000000       0.80000000 </v>
    <v>       0.60000000       0.20000000       0.80000000 </v>
    <v>       0.20000000       0.60000000       0.80000000 </v>
    <v>       0.20000000       0.80000000       0.80000000 </v>
    <v>       0.60000000       0.80000000       0.60000000 </v>
    <v>       0.60000000       0.40000000       0.00000000 </v>
    <v>       0.40000000       0.80000000       0.40000000 </v>
    <v>       0.40000000       0.80000000       0.00000000 </v>
    <v>       0.40000000       0.40000000       0.40000000 </v>
    <v>       0.00000000       0.60000000       0.00000000 </v>
    <v>       0.60000000       0.60000000       0.80000000 </v>
    <v>       0.60000000       0.40000000       0.40000000 </v>
    <v>       0.20000000       0.80000000       0.40000000 </v>
    <v>       0.80000000       0.00000000       0.80000000 </v>
    <v>       0.40000000       0.60000000       0.60000000 </v>
    <v>       0.40000000       0.20000000       0.00000000 </v>
    <v>       0.40000000       0.20000000       0.20000000 </v>
    <v>       0.40000000       0.60000000       0.00000000 </v>
    <v>       0.80000000       0.00000000       0.60000000 </v>
    <v>       0.40000000       0.80000000       0.80000000 </v>
    <v>       0.60000000       0.00000000       0.20000000 </v>
    <v>       0.40000000       0.00000000       0.60000000 </v>
    <v>       0.60000000       0.40000000       0.20000000 </v>
    <v>       0.40000000       0.80000000       0.60000000 </v>
    <v>       0.80000000       0.40000000       0.00000000 </v>
    <v>       0.00000000       0.80000000       0.40000000 </v>
    <v>       0.00000000       0.20000000       0.00000000 </v>
    <v>       0.20000000       0.40000000       0.00000000 </v>
    <v>       0.00000000       0.80000000       0.60000000 </v>
    <v>       0.20000000       0.80000000       0.60000000 </v>
    <v>       0.20000000       0.20000000       0.20000000 </v>
   </varray>
  </structure>
  <varray name="forces" >
   <v>       5.61902161      -0.47216464      -5.55427702 </v>
   <v>      -0.09348324      -5.43335955       5.40768709 </v>
   <v>       1.00986369      -0.01050930      -5.96882173 </v>
   <v>       0.01123411       5.43386120       5.67513704 </v>
   <v>      -0.35552091       0.14448085      -0.16353785 </v>
   <v>       0.18220963      -0.12326541      -0.73553303 </v>
   <v>       0.39124962      -0.05241488      -0.49145454 </v>
   <v>      -5.62632601       4.85137190      -0.49041164 </v>
   <v>       0.96640334       0.30999153       0.07291173 </v>
   <v>      -1.10547906       0.66026365      -4.91756910 </v>
   <v>      -6.36578809      -0.12783474      -0.42617802 </v>
   <v>       4.95907612       4.93575089      -0.42770279 </v>
   <v>      -0.57206591       0.68300520       0.47719006 </v>
   <v>       0.26105148       5.81707681      -0.59106663 </v>
   <v>      -0.36902999       0.91377240      -5.45534552 </v>
   <v>      -5.87919504       0.35851098      -0.03289260 </v>
   <v>      -0.35836476      -0.01991835       0.07136017 </v>
   <v>      -0.26341605       1.06312155      -0.11634709 </v>
   <v>       0.32872183       0.82603385      -0.61063336 </v>
   <v>       0.62360908      -0.03464951      -5.41360350 </v>
   <v>       0.88915122      -0.60986473       5.82881001 </v>
   <v>      -4.88545889      -0.19832347       0.30415740 </v>
   <v>       6.27795877       0.46624895       5.60107546 </v>
   <v>      -0.04835885      -0.60722081      -5.39732089 </v>
   <v>       5.16872617      -0.09306911      -5.60566839 </v>
   <v>      -5.33664481       5.93853929      -0.20651194 </v>
   <v>      -0.50875840       0.36610170      -0.63744983 </v>
   <v>      -5.67553086       0.02327968       0.34983908 </v>
   <v>      -0.11379791       0.68287728      -0.53711627 </v>
   <v>       0.10974108       0.15235914      -0.06992695 </v>
   <v>       1.03484656      -0.03078668      -1.77545050 </v>
   <v>      -5.92345111       0.14731475      -0.02133585 </v>
   <v>      -1.09950117      -0.45521354       0.44134912 </v>
   <v>      -0.26602826      -0.79848671      -1.22685176 </v>
   <v>      -0.42817600       1.13599423      -0.37780060 </v>
   <v>      -0.41425772      -0.94270287       5.11319918 </v>
   <v>       6.04823397      -6.21450285      -0.25416753 </v>
   <v>       0.50658674      -5.27176922       4.63934416 </v>
   <v>      -0.74414572       0.34386226       5.20569174 </v>
   <v>       0.11709758       0.19330532       0.15014656 </v>
   <v>       4.89016417      -0.08125688      -0.03887586 </v>
   <v>       0.28006276       0.16146360       5.14381294 </v>
   <v>      -5.81497725      -4.95730057       5.64537767 </v>
   <v>      -6.16367716      -0.69135305      -0.00776053 </v>
   <v>      -0.06755833       6.13009190      -0.01729433 </v>
   <v>       4.49569727       0.26135250       5.55223599 </v>
   <v>      -5.51463404       0.13821408      -5.04516560 </v>
   <v>       0.01255529       1.39676828       0.31309893 </v>
   <v>       0.11257233       1.39101656      -0.35673973 </v>
   <v>       0.11218702       5.93022999       5.43341005 </v>
   <v>      -0.49826670       5.14130668      -0.05518314 </v>
   <v>      -0.54635238      -0.30851314       0.05494890 </v>
   <v>      -0.39595490      -0.47652561      -0.23100499 </v>
   <v>      -0.92977466      -5.64976845       0.29585769 </v>
   <v>       0.27997528       5.38326525       0.84266549 </v>
   <v>      -0.00157940       5.38771733      -0.14560451 </v>
   <v>       0.83551145      -1.07132267       0.70355612 </v>
   <v>       0.10123921       0.23002632      -0.47546832 </v>
   <v>      -0.08861134      -1.46639523       0.45886235 </v>
   <v>       0.68631301      -0.52727825       0.29868661 </v>
   <v>       1.42797929       0.59054862       1.78122938 </v>
   <v>      -1.07335389      -0.04000339       0.41402410 </v>
   <v>       5.59911467      -0.70694536       0.91250818 </v>
   <v>      -5.89372235      -1.00624279       0.09802150 </v>
   <v>       0.37209301       5.80801367      -5.65895253 </v>
   <v>      -1.30456012       0.00728586       0.40253591 </v>
   <v>      -0.41046861      -5.53189300      -6.02273813 </v>
   <v>      -0.00680043       1.15617958       0.22723963 </v>
   <v>      -0.20588219      -4.98135459      -0.15080674 </v>
   <v>       0.26109360      -0.60055717      -5.64606761 </v>
   <v>       0.76894130       6.09066049       0.77029369 </v>
   <v>       5.44096874      -5.86089107       0.19080856 </v>
   <v>      -0.23175073       0.00408117      -0.32259773 </v>
   <v>       5.92551217      -0.55624007       0.17188158 </v>
   <v>       0.64568937      -0.30738181      -4.98085068 </v>
   <v>       0.62179304      -0.68155353      -0.69754349 </v>
   <v>       0.72800481      -1.04140954       0.11258727 </v>
   <v>       0.21514305       0.56013363       5.05508847 </v>
   <v>      -5.38814111      -6.21829632       6.32344016 </v>
   <v>      -4.38350083      -6.11501400       0.22280864 </v>
   <v>       5.74718029      -0.37197545      -0.18152364 </v>
   <v>      -1.15676772       0.37454187      -0.40977743 </v>
   <v>       5.42770344       0.13633892      -0.00458286 </v>
   <v>       0.41892053      -5.80767319       5.73102905 </v>
   <v>       0.57215972       0.78380111       0.92787172 </v>
   <v>       6.05224234       0.50025779       0.08058476 </v>
   <v>       0.14144719      -0.22848513       0.26878982 </v>
   <v>       0.54084871      -5.56339243      -0.18860407 </v>
   <v>      -0.03482524      -6.21058210      -0.50761023 </v>
   <v>       6.05050299       0.42703145       0.09448626 </v>
   <v>      -0.01829011       0.03241805       0.25203898 </v>
   <v>       5.20507414      -5.05940383       0.05656793 </v>
   <v>       0.22177390      -1.05122907       0.70844694 </v>
   <v>       5.96060619      -0.31314805      -0.00395137 </v>
   <v>      -0.43318061       5.08530229      -5.57121426 </v>
   <v>      -5.65353878       5.96167294      -0.39485744 </v>
   <v>      -5.99567400       0.21243734      -5.08422303 </v>
   <v>      -5.62250726       0.16120342       0.03931969 </v>
   <v>      -0.17738517      -0.17949992       0.23765368 </v>
   <v>      -0.21138018       0.26815393       0.54436395 </v>
  </varray>
  <varray name="stress" >
   <v>    1455.63682338      -3.94208813       8.31975085 </v>
   <v>      -3.94208822    1442.12103101      22.07988024 </v>
   <v>       8.31975103      22.07988027    1437.72679151 </v>
  </varray>
  <energy>
   <i name="e_fr_energy">   -252.23010397 </i>
   <i name="e_wo_entrp">   -252.20807898 </i>
   <i name="e_0_energy">     -0.04404997 </i>
   <i name="kinetic">      0.00000000 </i>
   <i name="lattice kinetic">      0.00000000 </i>
   <i name="nosepot">      0.00000000 </i>
   <i name="nosekinetic">      0.00000000 </i>
   <i name="total">   -252.23010397 </i>
  </energy>
  <time name="totalsc">   25.90   26.36</time>
 </calculation>
 <calculation>
  <scstep>
   <time name="dav">    1.85    1.86</time>
   <time name="total">    1.96    2.02</time>
   <energy>
    <i name="alphaZ">    316.14514549 </i>
    <i name="ewald"> -13000.85026229 </i>
    <i name="hartreedc">  -1625.68625369 </i>
    <i name="XCdc">   -742.65497098 </i>
    <i name="pawpsdc"> 153581.14793270 </i>
    <i name="pawaedc">-151859.12567758 </i>
    <i name="eentropy">     -0.04059171 </i>
    <i name="bandstr">   2768.45796683 </i>
    <i name="atom">  10306.12861560 </i>
    <i name="e_fr_energy">   -256.47809562 </i>
    <i name="e_wo_entrp">   -256.43750392 </i>
    <i name="e_0_energy">   -256.45779977 </i>
   </energy>
  </scstep>
  <scstep>
   <time name="diag">    0.29    0.29</time>
   <time name="diis">    0.64    0.64</time>
   <time name="orth">    0.09    0.09</time>
   <time name="total">    1.12    1.13</time>
   <energy>
    <i name="e_fr_energy">   -256.47572380 </i>
    <i name="e_wo_entrp">   -256.43474065 </i>
    <i name="e_0_energy">   -256.45523223 </i>
   </energy>
  </scstep>
  <scstep>
   <time name="diag">    0.28    0.29</time>
   <time name="diis">    0.63    0.63</time>
   <time name="orth">    0.09    0.09</time>
   <time name="total">    1.11    1.12</time>
   <energy>
    <i name="e_fr_energy">   -256.47352176 </i>
    <i name="e_wo_entrp">   -256.43205751 </i>
    <i name="e_0_energy">   -256.45278963 </i>
   </energy>
  </scstep>
  <scstep>
   <time name="diag">    0.29    0.29</time>
   <time name="diis">    0.64    0.65</time>
   <time name="orth">    0.09    0.09</time>
   <time name="total">    1.12    1.13</time>
   <energy>
    <i name="e_fr_energy">   -256.47275263 </i>
    <i name="e_wo_entrp">   -256.43146490 </i>
    <i name="e_0_energy">   -256.45210876 </i>
   </energy>
  </scstep>
  <scstep>
   <time name="diag">    0.29    0.29</time>
   <time name="diis">    0.63    0.64</time>
   <time name="orth">    0.09    0.09</time>
   <time name="total">    1.12    1.12</time>
   <energy>
    <i name="e_fr_energy">   -256.47252679 </i>
    <i name="e_wo_entrp">   -256.43114286 </i>
    <i name="e_0_energy">   -256.45183482 </i>
   </energy>
  </scstep>
  <scstep>
   <time name="diag">    0.28    0.29</time>
   <time name="diis">    0.51    0.52</time>
   <time name="orth">    0.09    0.09</time>
   <time name="total">    0.99    1.00</time>
   <energy>
    <i name="e_fr_energy">   -256.47249039 </i>
    <i name="e_wo_entrp">   -256.43115596 </i>
    <i name="e_0_energy">   -256.45182317 </i>
   </energy>
  </scstep>
  <scstep>
   <time name="diag">    0.28    0.29</time>
   <time name="diis">    0.43    0.43</time>
   <time name="orth">    0.09    0.09</time>
   <time name="total">    0.87    0.88</time>
   <energy>
    <i name="alphaZ">    316.14514549 </i>
    <i name="ewald"> -13000.85026229 </i>
    <i name="hartreedc">  -1622.89386947 </i>
    <i name="XCdc">   -742.90350816 </i>
    <i name="pawpsdc"> 152310.58642301 </i>
    <i name="pawaedc">-150588.18719764 </i>
    <i name="eentropy">     -0.04136181 </i>
    <i name="bandstr">   2765.54353465 </i>
    <i name="atom">  10306.12861560 </i>
    <i name="e_fr_energy">   -256.47248062 </i>
    <i name="e_wo_entrp">   -256.43111881 </i>
    <i name="e_0_energy">   -256.45179971 </i>
   </energy>
  </scstep>
  <structure>
   <crystal>
    <varray name="basis" >
     <v>      10.21149500       0.00000000       0.00000000 </v>
     <v>       0.00000000      10.21149500       0.00000000 </v>
     <v>       0.00000000       0.00000000      10.21149500 </v>
    </varray>
    <i name="volume">   1064.79986425 </i>
    <varray name="rec_basis" >
     <v>       0.09792885       0.00000000       0.00000000 </v>
     <v>       0.00000000       0.09792885       0.00000000 </v>
     <v>       0.00000000       0.00000000       0.09792885 </v>
    </varray>
   </crystal>
   <varray name="positions" >
    <v>       0.80085069       0.59992852       0.19915911 </v>
    <v>       0.79998585       0.79917742       0.00081869 </v>
    <v>       0.60015289       0.19999841       0.39909635 </v>
    <v>       0.80000170       0.20082266       0.80085918 </v>
    <v>       0.39994618       0.00002187       0.39997524 </v>
    <v>       0.60002759       0.79998134       0.79988864 </v>
    <v>       0.60005923       0.59999207       0.39992560 </v>
    <v>       0.59914821       0.60073447       0.19992575 </v>
    <v>       0.40014631       0.00004693       0.20001104 </v>
    <v>       0.99983264       0.00009996       0.99925551 </v>
    <v>       0.19903626       0.19998065       0.39993548 </v>
    <v>       0.80075078       0.20074725       0.39993525 </v>
    <v>       0.99991339       0.20010340       0.80007224 </v>
    <v>       0.80003952       0.20088067       0.59991052 </v>
    <v>       0.99994413       0.20013834       0.59917409 </v>
    <v>       0.19910992       0.00005428       0.39999502 </v>
    <v>       0.99994575       0.99999698       0.60001080 </v>
    <v>       0.19996012       0.20016095       0.99998239 </v>
    <v>       0.40004977       0.20012506       0.39990755 </v>
    <v>       0.60009441       0.79999475       0.39918041 </v>
    <v>       0.60013461       0.79990767       0.00088245 </v>
    <v>       0.99926037       0.39996998       0.60004605 </v>
    <v>       0.60095045       0.20007059       0.00084797 </v>
    <v>       0.39999268       0.59990807       0.39918288 </v>
    <v>       0.80078252       0.99998591       0.39915133 </v>
    <v>       0.99919206       0.40089906       0.19996874 </v>
    <v>       0.19992298       0.00005543       0.99990349 </v>
    <v>       0.19914076       0.40000352       0.40005296 </v>
    <v>       0.39998277       0.40010338       0.99991868 </v>
    <v>       0.60001661       0.00002307       0.79998941 </v>
    <v>       0.60015667       0.99999534       0.39973121 </v>
    <v>       0.19910322       0.00002230       0.79999677 </v>
    <v>       0.19983354       0.79993108       0.00006682 </v>
    <v>       0.19995972       0.59987911       0.39981426 </v>
    <v>       0.19993518       0.40017198       0.19994280 </v>
    <v>       0.99993728       0.79985728       0.00077411 </v>
    <v>       0.40091567       0.79905916       0.19996152 </v>
    <v>       0.80007669       0.59920188       0.40070237 </v>
    <v>       0.99988734       0.20005206       0.20078811 </v>
    <v>       0.40001773       0.00002927       0.00002273 </v>
    <v>       0.60074034       0.59998770       0.99999411 </v>
    <v>       0.60004240       0.40002445       0.60077874 </v>
    <v>       0.99911964       0.99924949       0.20085468 </v>
    <v>       0.99906685       0.59989533       0.59999883 </v>
    <v>       0.39998977       0.20092806       0.59999738 </v>
    <v>       0.20068062       0.40003957       0.60084058 </v>
    <v>       0.79916512       0.20002093       0.19923619 </v>
    <v>       0.60000190       0.20021146       0.60004740 </v>
    <v>       0.40001704       0.20021059       0.79994599 </v>
    <v>       0.80001698       0.00089780       0.00082259 </v>
    <v>       0.19992457       0.20077837       0.79999165 </v>
    <v>       0.19991729       0.59995329       0.20000832 </v>
    <v>       0.39994005       0.99992786       0.79996503 </v>
    <v>       0.99985924       0.59914466       0.80004479 </v>
    <v>       0.40004239       0.40081500       0.20012757 </v>
    <v>       0.99999976       0.80081567       0.79997796 </v>
    <v>       0.20012649       0.59983781       0.60010651 </v>
    <v>       0.80001533       0.80003483       0.39992802 </v>
    <v>       0.19998658       0.59977800       0.00006947 </v>
    <v>       0.60010390       0.99992017       0.60004522 </v>
    <v>       0.60021619       0.00008941       0.00026967 </v>
    <v>       0.19983750       0.99999394       0.60006268 </v>
    <v>       0.60084767       0.59989297       0.60013815 </v>
    <v>       0.19910772       0.79984766       0.20001484 </v>
    <v>       0.40005633       0.40087930       0.79914327 </v>
    <v>       0.19980250       0.00000110       0.20006094 </v>
    <v>       0.99993786       0.59916250       0.39908819 </v>
    <v>       0.19999897       0.20017504       0.60003440 </v>
    <v>       0.79996883       0.59924585       0.79997717 </v>
    <v>       0.80003953       0.79990908       0.79914522 </v>
    <v>       0.60011641       0.20092209       0.80011662 </v>
    <v>       0.20082373       0.59911269       0.80002889 </v>
    <v>       0.19996491       0.80000062       0.79995116 </v>
    <v>       0.60089709       0.79991579       0.60002602 </v>
    <v>       0.60009775       0.39995346       0.99924593 </v>
    <v>       0.40009414       0.79989682       0.39989440 </v>
    <v>       0.40011022       0.79984234       0.00001704 </v>
    <v>       0.40003257       0.40008480       0.40076531 </v>
    <v>       0.99918427       0.59905858       0.00095733 </v>
    <v>       0.59933636       0.59907422       0.80003373 </v>
    <v>       0.60087009       0.39994369       0.39997252 </v>
    <v>       0.19982487       0.80005670       0.39993796 </v>
    <v>       0.80082172       0.00002064       0.79999931 </v>
    <v>       0.40006342       0.59912075       0.60086765 </v>
    <v>       0.40008662       0.20011866       0.00014047 </v>
    <v>       0.40091628       0.20007574       0.20001220 </v>
    <v>       0.40002141       0.59996541       0.00004069 </v>
    <v>       0.80008188       0.99915773       0.59997145 </v>
    <v>       0.39999473       0.79905975       0.79992315 </v>
    <v>       0.60091601       0.00006465       0.20001430 </v>
    <v>       0.39999723       0.00000491       0.60003816 </v>
    <v>       0.60078802       0.39923403       0.20000856 </v>
    <v>       0.40003358       0.79984085       0.60010725 </v>
    <v>       0.80090240       0.39995259       0.99999940 </v>
    <v>       0.99993442       0.80076989       0.39915655 </v>
    <v>       0.99914409       0.20090256       0.99994022 </v>
    <v>       0.19909229       0.40003216       0.99923028 </v>
    <v>       0.99914878       0.80002441       0.60000595 </v>
    <v>       0.19997314       0.79997283       0.60003598 </v>
    <v>       0.19996800       0.20004060       0.20008241 </v>
   </varray>
  </structure>
  <varray name="forces" >
   <v>       5.24027116      -0.49297856      -5.18312499 </v>
   <v>      -0.07361351      -5.07276657       5.00393119 </v>
   <v>       1.10159818      -0.04085206      -5.81245884 </v>
   <v>       0.00001735       5.23780757       5.48004978 </v>
   <v>      -0.52496628       0.14649676      -0.12109873 </v>
   <v>       0.15866580      -0.30711325      -0.42936444 </v>
   <v>       0.37075660      -0.07199499      -0.42884713 </v>
   <v>      -5.32883956       4.53374534      -0.44172071 </v>
   <v>       1.00158680       0.07602029       0.07835689 </v>
   <v>      -0.99251386       0.77577168      -4.65214205 </v>
   <v>      -6.18980826      -0.12128496      -0.35932795 </v>
   <v>       4.84987092       4.77388269      -0.54719692 </v>
   <v>      -0.52868314       0.62331493       0.21024278 </v>
   <v>       0.20637823       5.46314653      -0.32484318 </v>
   <v>      -0.32168560       0.80506090      -5.33469927 </v>
   <v>      -5.72394143       0.36084342      -0.00507519 </v>
   <v>      -0.33254063       0.02936955       0.09554338 </v>
   <v>      -0.37625968       0.97722636      -0.06521130 </v>
   <v>       0.10406252       0.78552411      -0.57067532 </v>
   <v>       0.59611384      -0.02305051      -5.28452145 </v>
   <v>       0.84975082      -0.50683426       5.63578563 </v>
   <v>      -4.56990085      -0.15171710       0.31558781 </v>
   <v>       6.11563816       0.43347447       5.49114893 </v>
   <v>      -0.05223179      -0.57558602      -5.09998719 </v>
   <v>       5.05423789       0.13060412      -5.46249874 </v>
   <v>      -5.14842187       5.76354987      -0.20712731 </v>
   <v>      -0.48171370       0.38392052      -0.56563237 </v>
   <v>      -5.53972835      -0.02062330       0.49836679 </v>
   <v>      -0.30712986       0.62952645      -0.60770970 </v>
   <v>       0.27463546       0.35992564       0.02076737 </v>
   <v>       1.12984981      -0.03568648      -1.57786812 </v>
   <v>      -5.81396997       0.31377775      -0.02354559 </v>
   <v>      -0.98632788      -0.47335306       0.38040180 </v>
   <v>      -0.24441290      -0.71238907      -1.06127719 </v>
   <v>      -0.51618964       1.00494190      -0.51632461 </v>
   <v>      -0.42049846      -1.07985704       4.96419478 </v>
   <v>       5.67779568      -6.04143908      -0.26336723 </v>
   <v>       0.43236547      -5.10435904       4.38182973 </v>
   <v>      -0.82604230       0.34289190       5.05239534 </v>
   <v>       0.12762084       0.17491232       0.10726400 </v>
   <v>       4.87133430      -0.11369895      -0.03008750 </v>
   <v>       0.24833884       0.18509523       4.97618794 </v>
   <v>      -5.68749143      -4.80503304       5.29231322 </v>
   <v>      -5.96035480      -0.60052338      -0.20957188 </v>
   <v>      -0.05845319       6.00466943      -0.07051942 </v>
   <v>       4.23523215       0.25488473       5.39211764 </v>
   <v>      -5.37652502       0.12442558      -4.90357042 </v>
   <v>       0.00923107       1.21250147       0.06738024 </v>
   <v>       0.12053984       1.43397204      -0.27203589 </v>
   <v>       0.09513243       5.57773255       5.28361664 </v>
   <v>      -0.46257686       5.02097992      -0.05610665 </v>
   <v>      -0.52356055      -0.27879691       0.02349045 </v>
   <v>      -0.56841630      -0.60896613      -0.19792492 </v>
   <v>      -0.63082434      -5.28292441       0.47296674 </v>
   <v>       0.42708845       5.31524992       0.95257774 </v>
   <v>       0.04534379       5.08145988       0.08954188 </v>
   <v>       0.51658913      -0.94374505       0.56397639 </v>
   <v>       0.07481506      -0.01011751      -0.42508146 </v>
   <v>      -0.26489071      -1.33784672       0.44290995 </v>
   <v>       0.63372339      -0.44503620       0.19941507 </v>
   <v>       1.30376379       0.51312162       1.58530543 </v>
   <v>      -0.95924916       0.00678252       0.37336928 </v>
   <v>       5.50146003      -0.63015816       0.77042350 </v>
   <v>      -5.53967295      -0.94219684       0.09091557 </v>
   <v>       0.36201350       5.68770770      -5.48568248 </v>
   <v>      -1.33062327       0.01694665       0.32807298 </v>
   <v>      -0.35748660      -5.18763909      -5.88896363 </v>
   <v>      -0.00924020       1.03447144       0.19879925 </v>
   <v>      -0.35654138      -4.79488426      -0.13499196 </v>
   <v>       0.21815120      -0.71323290      -5.31570775 </v>
   <v>       0.69353813       5.93437330       0.90523988 </v>
   <v>       5.25228569      -5.69104316       0.19777734 </v>
   <v>      -0.21684129      -0.18306021      -0.28161533 </v>
   <v>       5.76107161      -0.55885626      -0.07820549 </v>
   <v>       0.73573984      -0.25866353      -4.87917209 </v>
   <v>       0.52848961      -0.61975958      -0.57404318 </v>
   <v>       0.62210847      -0.92719904       0.05291409 </v>
   <v>       0.18770431       0.53244682       4.98574267 </v>
[...]
       <r>     9.9651    18.8798   125.2688 </r>
       <r>    10.0510    12.7462   126.3635 </r>
       <r>    10.1369    16.4564   127.7769 </r>
       <r>    10.2228    30.3025   130.3793 </r>
       <r>    10.3086    19.3348   132.0399 </r>
       <r>    10.3945    21.4041   133.8781 </r>
       <r>    10.4804    17.1948   135.3549 </r>
       <r>    10.5663    28.8492   137.8326 </r>
       <r>    10.6522    28.7392   140.3008 </r>
       <r>    10.7381    22.5560   142.2380 </r>
       <r>    10.8239    17.3304   143.7264 </r>
       <r>    10.9098    14.1243   144.9394 </r>
       <r>    10.9957     5.0013   145.3689 </r>
       <r>    11.0816    16.9393   146.8237 </r>
       <r>    11.1675    11.3863   147.8016 </r>
       <r>    11.2534    14.3673   149.0356 </r>
       <r>    11.3392    17.7254   150.5579 </r>
       <r>    11.4251    26.8345   152.8625 </r>
       <r>    11.5110    19.4196   154.5303 </r>
       <r>    11.5969     8.2997   155.2431 </r>
       <r>    11.6828    13.0540   156.3643 </r>
       <r>    11.7687    15.7014   157.7128 </r>
       <r>    11.8545    18.5107   159.3025 </r>
       <r>    11.9404    29.2702   161.8163 </r>
       <r>    12.0263    20.2240   163.5532 </r>
       <r>    12.1122    19.7227   165.2471 </r>
       <r>    12.1981    21.3997   167.0850 </r>
       <r>    12.2840    21.9332   168.9687 </r>
       <r>    12.3698    14.8223   170.2417 </r>
       <r>    12.4557     8.4622   170.9684 </r>
       <r>    12.5416     0.3674   171.0000 </r>
       <r>    12.6275     0.0001   171.0000 </r>
       <r>    12.7134     0.0033   171.0003 </r>
       <r>    12.7993     2.2809   171.1962 </r>
       <r>    12.8851    17.4173   172.6920 </r>
       <r>    12.9710     4.2916   173.0606 </r>
       <r>    13.0569    18.5258   174.6517 </r>
       <r>    13.1428    15.7307   176.0027 </r>
       <r>    13.2287    13.5951   177.1703 </r>
       <r>    13.3146     9.4831   177.9847 </r>
       <r>    13.4005     0.7874   178.0523 </r>
       <r>    13.4863    15.1957   179.3574 </r>
       <r>    13.5722     8.8247   180.1153 </r>
       <r>    13.6581    10.8870   181.0503 </r>
       <r>    13.7440    18.1954   182.6130 </r>
       <r>    13.8299    16.3881   184.0205 </r>
       <r>    13.9158    22.9874   185.9947 </r>
       <r>    14.0016    12.6062   187.0773 </r>
       <r>    14.0875    18.3052   188.6495 </r>
       <r>    14.1734    23.1671   190.6391 </r>
       <r>    14.2593    18.1403   192.1971 </r>
       <r>    14.3452    19.0707   193.8349 </r>
       <r>    14.4311    15.6033   195.1750 </r>
       <r>    14.5169    24.8738   197.3113 </r>
       <r>    14.6028    17.6692   198.8287 </r>
       <r>    14.6887    21.9734   200.7159 </r>
       <r>    14.7746    15.7262   202.0665 </r>
       <r>    14.8605    18.4051   203.6472 </r>
       <r>    14.9464    21.2272   205.4703 </r>
       <r>    15.0322    15.4115   206.7939 </r>
       <r>    15.1181    21.8680   208.6720 </r>
       <r>    15.2040    24.6119   210.7857 </r>
       <r>    15.2899    27.6945   213.1642 </r>
       <r>    15.3758    26.3120   215.4240 </r>
       <r>    15.4617    29.4886   217.9566 </r>
       <r>    15.5475    13.1110   219.0826 </r>
       <r>    15.6334    23.8582   221.1316 </r>
       <r>    15.7193    35.2535   224.1593 </r>
       <r>    15.8052    26.4504   226.4310 </r>
       <r>    15.8911    21.9748   228.3182 </r>
       <r>    15.9770    19.1686   229.9645 </r>
       <r>    16.0628    14.8094   231.2364 </r>
       <r>    16.1487    33.8089   234.1400 </r>
       <r>    16.2346    29.3189   236.6580 </r>
       <r>    16.3205    24.6679   238.7766 </r>
       <r>    16.4064    18.8091   240.3920 </r>
       <r>    16.4923    20.3158   242.1368 </r>
       <r>    16.5781    18.2537   243.7045 </r>
       <r>    16.6640    13.6703   244.8785 </r>
       <r>    16.7499    17.4579   246.3779 </r>
       <r>    16.8358    16.8252   247.8229 </r>
       <r>    16.9217    13.2678   248.9623 </r>
       <r>    17.0076     4.0642   249.3114 </r>
       <r>    17.0934    10.1776   250.1855 </r>
       <r>    17.1793     8.8830   250.9484 </r>
       <r>    17.2652     0.6007   251.0000 </r>
       <r>    17.3511     0.0003   251.0000 </r>
       <r>    17.4370     0.0000   251.0000 </r>
       <r>    17.5229     0.0000   251.0000 </r>
       <r>    17.6087     0.0000   251.0000 </r>
       <r>    17.6946     0.0007   251.0001 </r>
       <r>    17.7805     0.9414   251.0809 </r>
       <r>    17.8664    14.5382   252.3295 </r>
       <r>    17.9523    23.2694   254.3280 </r>
       <r>    18.0382     8.4489   255.0536 </r>
       <r>    18.1240    10.6110   255.9649 </r>
       <r>    18.2099    11.1640   256.9237 </r>
       <r>    18.2958     1.2537   257.0314 </r>
       <r>    18.3817     8.6277   257.7723 </r>
       <r>    18.4676    16.9605   259.2290 </r>
       <r>    18.5535    19.3907   260.8943 </r>
       <r>    18.6393    15.9315   262.2626 </r>
       <r>    18.7252    18.4809   263.8498 </r>
       <r>    18.8111    17.0223   265.3117 </r>
       <r>    18.8970    18.1575   266.8711 </r>
       <r>    18.9829    31.2231   269.5527 </r>
       <r>    19.0688    33.2456   272.4079 </r>
       <r>    19.1546    29.8834   274.9744 </r>
       <r>    19.2405    30.1920   277.5674 </r>
       <r>    19.3264    32.0197   280.3174 </r>
       <r>    19.4123    25.3423   282.4938 </r>
       <r>    19.4982    23.8212   284.5397 </r>
       <r>    19.5841    23.1997   286.5322 </r>
       <r>    19.6699    24.5689   288.6422 </r>
       <r>    19.7558    24.4825   290.7449 </r>
       <r>    19.8417    24.1364   292.8178 </r>
       <r>    19.9276    32.7481   295.6303 </r>
       <r>    20.0135    30.3035   298.2329 </r>
       <r>    20.0994    18.8010   299.8476 </r>
       <r>    20.1852    19.8304   301.5507 </r>
       <r>    20.2711    22.7053   303.5007 </r>
       <r>    20.3570     5.7531   303.9948 </r>
       <r>    20.4429     0.0609   304.0000 </r>
       <r>    20.5288     0.0000   304.0000 </r>
       <r>    20.6147     0.0000   304.0000 </r>
       <r>    20.7005     0.0000   304.0000 </r>
       <r>    20.7864     0.0000   304.0000 </r>
       <r>    20.8723     0.0000   304.0000 </r>
       <r>    20.9582     0.0000   304.0000 </r>
       <r>    21.0441     0.0000   304.0000 </r>
       <r>    21.1300     0.0000   304.0000 </r>
       <r>    21.2158     0.0000   304.0000 </r>
       <r>    21.3017     0.0000   304.0000 </r>
       <r>    21.3876     0.0000   304.0000 </r>
       <r>    21.4735     0.0000   304.0000 </r>
      </set>
     </set>
    </array>
   </total>
  </dos>
 </calculation>
 <structure name="finalpos" >
  <crystal>
   <varray name="basis" >
    <v>      10.21149500       0.00000000       0.00000000 </v>
    <v>       0.00000000      10.21149500       0.00000000 </v>
    <v>       0.00000000       0.00000000      10.21149500 </v>
   </varray>
   <i name="volume">   1064.79986425 </i>
   <varray name="rec_basis" >
    <v>       0.09792885       0.00000000       0.00000000 </v>
    <v>       0.00000000       0.09792885       0.00000000 </v>
    <v>       0.00000000       0.00000000       0.09792885 </v>
   </varray>
  </crystal>
  <varray name="positions" >
   <v>       0.82678706       0.76971749       0.09252905 </v>
   <v>       0.82127349       0.89755911       0.90501962 </v>
   <v>       0.69347554       0.14102361       0.42735735 </v>
   <v>       0.78908798       0.21776262       0.85880838 </v>
   <v>       0.29951246       0.99159498       0.40474070 </v>
   <v>       0.61543204       0.80021062       0.84911510 </v>
   <v>       0.49963330       0.57907227       0.43685138 </v>
   <v>       0.50215500       0.54825431       0.21516769 </v>
   <v>       0.55207971       0.96332794       0.27800247 </v>
   <v>       0.01358307       0.99547829       0.87686711 </v>
   <v>       0.18340969       0.19276130       0.43854909 </v>
   <v>       0.80703294       0.41726086       0.41665317 </v>
   <v>       0.97421920       0.21556211       0.77452081 </v>
   <v>       0.76932578       0.31380555       0.63553616 </v>
   <v>       0.88831915       0.17893081       0.52109741 </v>
   <v>       0.08024170       0.99320548       0.43113047 </v>
   <v>       0.04878172       0.08674512       0.62829556 </v>
   <v>       0.18344635       0.26685450       0.98102194 </v>
   <v>       0.43893087       0.19819476       0.36456129 </v>
   <v>       0.59955461       0.72908983       0.29947778 </v>
   <v>       0.57037617       0.69380649       0.04706389 </v>
   <v>       0.00579220       0.37888725       0.61513504 </v>
   <v>       0.61652270       0.24660919       0.99640220 </v>
   <v>       0.32273860       0.66256968       0.32244627 </v>
   <v>       0.89730702       0.07858862       0.31329042 </v>
   <v>       0.01868479       0.37975347       0.12102311 </v>
   <v>       0.18205724       0.05065059       0.02296473 </v>
   <v>       0.04240005       0.35504001       0.37788660 </v>
   <v>       0.29427314       0.44015620       0.07345165 </v>
   <v>       0.63632037       0.07702451       0.84839179 </v>
   <v>       0.67120253       0.90515230       0.45739250 </v>
   <v>       0.18308574       0.13636684       0.81471311 </v>
   <v>       0.22732836       0.81617911       0.05244054 </v>
   <v>       0.09307416       0.57792449       0.43270363 </v>
   <v>       0.23549549       0.29906055       0.24593456 </v>
   <v>       0.02136894       0.79880168       0.97956428 </v>
   <v>       0.40805899       0.81380335       0.19419896 </v>
   <v>       0.73511288       0.57816883       0.21539859 </v>
   <v>       0.09975562       0.13173672       0.23029653 </v>
   <v>       0.48913563       0.05332340       0.07311128 </v>
   <v>       0.77937749       0.65254332       0.90568999 </v>
   <v>       0.41597938       0.49836629       0.64499689 </v>
   <v>       0.97229718       0.95066382       0.14847622 </v>
   <v>       0.89172054       0.58828619       0.57043012 </v>
   <v>       0.45598415       0.28635304       0.56809016 </v>
   <v>       0.20390766       0.48821035       0.60244309 </v>
   <v>       0.86307286       0.25767828       0.22455900 </v>
   <v>       0.63369800       0.14079510       0.62898519 </v>
   <v>       0.41659646       0.06890247       0.81280840 </v>
   <v>       0.79245656       0.07406957       0.06089393 </v>
   <v>       0.37067009       0.30240307       0.78715849 </v>
   <v>       0.14366540       0.49791660       0.24515740 </v>
   <v>       0.25096502       0.93290225       0.82704954 </v>
   <v>       0.96619191       0.61853485       0.81622805 </v>
   <v>       0.47776403       0.32142227       0.17841348 </v>
   <v>       0.02224729       0.83712200       0.73778618 </v>
   <v>       0.09979749       0.64390425       0.63714734 </v>
   <v>       0.74277742       0.69862945       0.47950947 </v>
   <v>       0.11494868       0.61354963       0.01466046 </v>
   <v>       0.62432368       0.94278604       0.67365930 </v>
   <v>       0.61623693       0.89854485       0.05201390 </v>
   <v>       0.32129065       0.09288911       0.62187355 </v>
   <v>       0.65234744       0.50153412       0.57955424 </v>
   <v>       0.10995940       0.73047337       0.23155464 </v>
   <v>       0.45080803       0.46453632       0.92339196 </v>
   <v>       0.18441881       0.92626686       0.23266514 </v>
   <v>       0.93365084       0.58139140       0.28685537 </v>
   <v>       0.17450904       0.27078829       0.64930305 </v>
   <v>       0.80709769       0.45066503       0.80281007 </v>
   <v>       0.79841850       0.76772791       0.72777777 </v>
   <v>       0.58228479       0.30795672       0.77953236 </v>
   <v>       0.24926925       0.46385822       0.82536813 </v>
   <v>       0.19910225       0.70471885       0.81230493 </v>
   <v>       0.58299228       0.71677251       0.61697912 </v>
   <v>       0.64262422       0.48593721       0.02149855 </v>
   <v>       0.43249376       0.80082460       0.43067617 </v>
   <v>       0.41756319       0.84441391       0.94865744 </v>
   <v>       0.31051020       0.44501211       0.42066696 </v>
   <v>       0.90263025       0.55246141       0.06136845 </v>
   <v>       0.62702807       0.55613951       0.79026768 </v>
   <v>       0.59773431       0.36223356       0.41947468 </v>
   <v>       0.19618356       0.79243294       0.43168660 </v>
   <v>       0.82428001       0.01744195       0.71517894 </v>
   <v>       0.32394072       0.70690518       0.60168360 </v>
   <v>       0.38233207       0.22400821       0.99014608 </v>
   <v>       0.63916904       0.16221830       0.19920850 </v>
   <v>       0.34223303       0.64427645       0.04290264 </v>
   <v>       0.87299060       0.96302479       0.49894245 </v>
   <v>       0.40463844       0.64911099       0.81361176 </v>
   <v>       0.77068485       0.92356365       0.23944536 </v>
   <v>       0.49958472       0.01985802       0.49195882 </v>
   <v>       0.67746130       0.38057808       0.22490928 </v>
   <v>       0.42625474       0.86200250       0.69801600 </v>
   <v>       0.82232522       0.35786708       0.01113364 </v>
   <v>       0.90766447       0.78380485       0.30493007 </v>
   <v>       0.98488932       0.17892245       0.03466738 </v>
   <v>       0.03904048       0.40663790       0.91322701 </v>
   <v>       0.98944865       0.80215892       0.51867634 </v>
   <v>       0.19370413       0.91360206       0.60729156 </v>
   <v>       0.33539121       0.10138613       0.19453492 </v>
  </varray>
  <varray name="velocities" >
   <v>       0.00236592      -0.00125951      -0.00028315 </v>
   <v>       0.00263774      -0.00125967       0.00194487 </v>
   <v>      -0.00074587       0.00213549       0.00179518 </v>
   <v>      -0.00240960      -0.00441824       0.00271768 </v>
   <v>      -0.00369922       0.00260820       0.00045115 </v>
   <v>       0.00176394       0.00026331       0.00175095 </v>
   <v>       0.00429201      -0.00038629      -0.00017126 </v>
   <v>      -0.00173824      -0.00017237      -0.00269056 </v>
   <v>      -0.00000990       0.00130627      -0.00233208 </v>
   <v>       0.00050154      -0.00349746      -0.00086957 </v>
   <v>      -0.00113337       0.00414887      -0.00223022 </v>
   <v>      -0.00117849      -0.00050266       0.00096538 </v>
   <v>       0.00305613      -0.00273121      -0.00098679 </v>
   <v>      -0.00148439      -0.00366601       0.00357783 </v>
   <v>      -0.00160808      -0.00155209      -0.00307111 </v>
   <v>      -0.00317871      -0.00105412       0.00049548 </v>
   <v>      -0.00154918       0.00260845       0.00125949 </v>
   <v>      -0.00145688       0.00522019       0.00161357 </v>
   <v>      -0.00082181       0.00121164       0.00076334 </v>
   <v>      -0.00346008      -0.00064147      -0.00113385 </v>
   <v>      -0.00165325       0.00324872       0.00155878 </v>
   <v>       0.00188997      -0.00733831      -0.00185449 </v>
   <v>      -0.00164078      -0.00143164      -0.00151558 </v>
   <v>      -0.00236170       0.00078740       0.00515319 </v>
   <v>       0.00315337       0.00073956      -0.00352071 </v>
   <v>      -0.00010029       0.00203566      -0.00451960 </v>
   <v>       0.00420514       0.00161990      -0.00064301 </v>
   <v>      -0.00243472      -0.00032983      -0.00469268 </v>
   <v>       0.00092641       0.00011339       0.00218011 </v>
   <v>       0.00011602       0.00137764       0.00197088 </v>
   <v>       0.00158214       0.00598298       0.00021809 </v>
   <v>       0.00131924       0.00554717       0.00026166 </v>
   <v>      -0.00225714       0.00011598       0.00248135 </v>
   <v>      -0.00135841      -0.00488738       0.00411549 </v>
   <v>       0.00270863       0.00291175      -0.00034115 </v>
   <v>       0.00193892       0.00078098      -0.00009241 </v>
   <v>      -0.00175680       0.00110058      -0.00149102 </v>
   <v>      -0.00293293      -0.00287377      -0.00553941 </v>
   <v>      -0.00056197       0.00057154      -0.00539092 </v>
   <v>       0.00073071       0.00203123       0.00296159 </v>
   <v>      -0.00235979       0.00148267       0.00156142 </v>
   <v>      -0.00006591       0.00149688      -0.00057875 </v>
   <v>       0.00298407      -0.00403652       0.00353826 </v>
   <v>       0.00027991      -0.00009016       0.00104347 </v>
   <v>      -0.00123543       0.00113217       0.00011940 </v>
   <v>       0.00129951      -0.00223295       0.00226902 </v>
   <v>      -0.00024412       0.00021994       0.00246869 </v>
   <v>      -0.00379612      -0.00051908       0.00206106 </v>
   <v>       0.00094655      -0.00412082      -0.00128731 </v>
   <v>      -0.00259394      -0.00094859      -0.00351865 </v>
   <v>       0.00545160       0.00317039       0.00018858 </v>
   <v>       0.00056244      -0.00354863       0.00153817 </v>
   <v>      -0.00021872       0.00112262       0.00047032 </v>
   <v>       0.00181887       0.00273333      -0.00059611 </v>
   <v>      -0.00081078      -0.00129027      -0.00019817 </v>
   <v>      -0.00383671      -0.00144607      -0.00059408 </v>
   <v>       0.00020101      -0.00025859       0.00112710 </v>
   <v>      -0.00289113      -0.00467489      -0.00266458 </v>
   <v>       0.00284928       0.00009843       0.00065563 </v>
   <v>       0.00261539       0.00118125       0.00184316 </v>
   <v>       0.00492444      -0.00066498      -0.00469917 </v>
   <v>       0.00398011       0.00080950      -0.00032455 </v>
   <v>       0.00045301       0.00097439      -0.00189987 </v>
   <v>      -0.00079257      -0.00130084      -0.00165575 </v>
   <v>      -0.00072150       0.00100689       0.00151334 </v>
   <v>      -0.00229719       0.00046171      -0.00168568 </v>
   <v>       0.00347667       0.00112423       0.00238027 </v>
   <v>       0.00318651       0.00179941      -0.00176756 </v>
   <v>       0.00146890       0.00069722       0.00243209 </v>
   <v>       0.00055378      -0.00152139      -0.00153095 </v>
   <v>       0.00121040       0.00275521      -0.00082284 </v>
   <v>       0.00164984      -0.00445741      -0.00148174 </v>
   <v>       0.00372874       0.00094476      -0.00131108 </v>
   <v>      -0.00004970       0.00117638       0.00063378 </v>
   <v>       0.00160829      -0.00171366      -0.00158994 </v>
   <v>       0.00173722       0.00246830       0.00030079 </v>
   <v>      -0.00026564       0.00214461       0.00283685 </v>
   <v>      -0.00112734      -0.00115258      -0.00193588 </v>
   <v>      -0.00617127       0.00427385       0.00080786 </v>
   <v>       0.00250388      -0.00125014       0.00017321 </v>
   <v>       0.00069451      -0.00010929      -0.00109950 </v>
   <v>       0.00016400      -0.00097767       0.00035888 </v>
   <v>       0.00053038      -0.00001107      -0.00272007 </v>
   <v>       0.00375708      -0.00067468       0.00077216 </v>
   <v>      -0.00019536      -0.00648560       0.00133581 </v>
   <v>       0.00322522      -0.00111078       0.00149402 </v>
   <v>       0.00134483       0.00120239       0.00145479 </v>
   <v>      -0.00154430       0.00092011      -0.00062992 </v>
   <v>       0.00021935       0.00188156       0.00106989 </v>
   <v>      -0.00180123       0.00371483       0.00172536 </v>
   <v>      -0.00492684      -0.00079124       0.00126650 </v>
   <v>      -0.00530653       0.00033428      -0.00038249 </v>
   <v>       0.00093917       0.00093794      -0.00024105 </v>
   <v>      -0.00091416      -0.00099304       0.00243094 </v>
   <v>      -0.00568277      -0.00317832      -0.00352550 </v>
   <v>       0.00241613       0.00087106       0.00061423 </v>
   <v>      -0.00149950      -0.00222067       0.00123943 </v>
   <v>      -0.00183637      -0.00054183       0.00062065 </v>
   <v>      -0.00160916       0.00017394      -0.00442598 </v>
   <v>       0.00035696      -0.00145337       0.00395552 </v>
  </varray>
 </structure>
</modeling>
