unknown system                          
           1
    10.211495    0.000000    0.000000
     0.000000   10.211495    0.000000
     0.000000    0.000000   10.211495
   Si
 100
Direct configuration=     1
   0.80000000  0.60000000  0.20000000
   0.80000000  0.80000000  0.00000000
   0.60000000  0.20000000  0.40000000
   0.80000000  0.20000000  0.80000000
   0.40000000  0.00000000  0.40000000
   0.60000000  0.80000000  0.80000000
   0.60000000  0.60000000  0.40000000
   0.60000000  0.60000000  0.20000000
   0.40000000  0.00000000  0.20000000
   0.00000000  0.00000000  0.00000000
   0.20000000  0.20000000  0.40000000
   0.80000000  0.20000000  0.40000000
   0.00000000  0.20000000  0.80000000
   0.80000000  0.20000000  0.60000000
   0.00000000  0.20000000  0.60000000
   0.20000000  0.00000000  0.40000000
   0.00000000  0.00000000  0.60000000
   0.20000000  0.20000000  0.00000000
   0.40000000  0.20000000  0.40000000
   0.60000000  0.80000000  0.40000000
   0.60000000  0.80000000  0.00000000
   0.00000000  0.40000000  0.60000000
   0.60000000  0.20000000  0.00000000
   0.40000000  0.60000000  0.40000000
   0.80000000  0.00000000  0.40000000
   0.00000000  0.40000000  0.20000000
   0.20000000  0.00000000  0.00000000
   0.20000000  0.40000000  0.40000000
   0.40000000  0.40000000  0.00000000
   0.60000000  0.00000000  0.80000000
   0.60000000  0.00000000  0.40000000
   0.20000000  0.00000000  0.80000000
   0.20000000  0.80000000  0.00000000
   0.20000000  0.60000000  0.40000000
   0.20000000  0.40000000  0.20000000
   0.00000000  0.80000000  0.00000000
   0.40000000  0.80000000  0.20000000
   0.80000000  0.60000000  0.40000000
   0.00000000  0.20000000  0.20000000
   0.40000000  0.00000000  0.00000000
   0.60000000  0.60000000  0.00000000
   0.60000000  0.40000000  0.60000000
   0.00000000  0.00000000  0.20000000
   0.00000000  0.60000000  0.60000000
   0.40000000  0.20000000  0.60000000
   0.20000000  0.40000000  0.60000000
   0.80000000  0.20000000  0.20000000
   0.60000000  0.20000000  0.60000000
   0.40000000  0.20000000  0.80000000
   0.80000000  0.00000000  0.00000000
   0.20000000  0.20000000  0.80000000
   0.20000000  0.60000000  0.20000000
   0.40000000  0.00000000  0.80000000
   0.00000000  0.60000000  0.80000000
   0.40000000  0.40000000  0.20000000
   0.00000000  0.80000000  0.80000000
   0.20000000  0.60000000  0.60000000
   0.80000000  0.80000000  0.40000000
   0.20000000  0.60000000  0.00000000
   0.60000000  0.00000000  0.60000000
   0.60000000  0.00000000  0.00000000
   0.20000000  0.00000000  0.60000000
   0.60000000  0.60000000  0.60000000
   0.20000000  0.80000000  0.20000000
   0.40000000  0.40000000  0.80000000
   0.20000000  0.00000000  0.20000000
   0.00000000  0.60000000  0.40000000
   0.20000000  0.20000000  0.60000000
   0.80000000  0.60000000  0.80000000
   0.80000000  0.80000000  0.80000000
   0.60000000  0.20000000  0.80000000
   0.20000000  0.60000000  0.80000000
   0.20000000  0.80000000  0.80000000
   0.60000000  0.80000000  0.60000000
   0.60000000  0.40000000  0.00000000
   0.40000000  0.80000000  0.40000000
   0.40000000  0.80000000  0.00000000
   0.40000000  0.40000000  0.40000000
   0.00000000  0.60000000  0.00000000
   0.60000000  0.60000000  0.80000000
   0.60000000  0.40000000  0.40000000
   0.20000000  0.80000000  0.40000000
   0.80000000  0.00000000  0.80000000
   0.40000000  0.60000000  0.60000000
   0.40000000  0.20000000  0.00000000
   0.40000000  0.20000000  0.20000000
   0.40000000  0.60000000  0.00000000
   0.80000000  0.00000000  0.60000000
   0.40000000  0.80000000  0.80000000
   0.60000000  0.00000000  0.20000000
   0.40000000  0.00000000  0.60000000
   0.60000000  0.40000000  0.20000000
   0.40000000  0.80000000  0.60000000
   0.80000000  0.40000000  0.00000000
   0.00000000  0.80000000  0.40000000
   0.00000000  0.20000000  0.00000000
   0.20000000  0.40000000  0.00000000
   0.00000000  0.80000000  0.60000000
   0.20000000  0.80000000  0.60000000
   0.20000000  0.20000000  0.20000000
Direct configuration=     2
   0.80085069  0.59992852  0.19915911
   0.79998585  0.79917742  0.00081869
   0.60015289  0.19999841  0.39909635
   0.80000170  0.20082266  0.80085918
   0.39994618  0.00002187  0.39997524
   0.60002759  0.79998134  0.79988864
   0.60005923  0.59999207  0.39992560
   0.59914821  0.60073447  0.19992575
   0.40014631  0.00004693  0.20001104
  -0.00016736  0.00009996 -0.00074449
   0.19903626  0.19998065  0.39993548
   0.80075078  0.20074725  0.39993525
  -0.00008661  0.20010340  0.80007224
   0.80003952  0.20088067  0.59991052
  -0.00005587  0.20013834  0.59917409
   0.19910992  0.00005428  0.39999502
  -0.00005425 -0.00000302  0.60001080
   0.19996012  0.20016095 -0.00001761
   0.40004977  0.20012506  0.39990755
   0.60009441  0.79999475  0.39918041
   0.60013461  0.79990767  0.00088245
  -0.00073963  0.39996998  0.60004605
   0.60095045  0.20007059  0.00084797
   0.39999268  0.59990807  0.39918288
   0.80078252 -0.00001409  0.39915133
  -0.00080794  0.40089906  0.19996874
   0.19992298  0.00005543 -0.00009651
   0.19914076  0.40000352  0.40005296
   0.39998277  0.40010338 -0.00008132
   0.60001661  0.00002307  0.79998941
   0.60015667 -0.00000466  0.39973121
   0.19910322  0.00002230  0.79999677
   0.19983354  0.79993108  0.00006682
   0.19995972  0.59987911  0.39981426
   0.19993518  0.40017198  0.19994280
  -0.00006272  0.79985728  0.00077411
   0.40091567  0.79905916  0.19996152
   0.80007669  0.59920188  0.40070237
  -0.00011266  0.20005206  0.20078811
   0.40001773  0.00002927  0.00002273
   0.60074034  0.59998770 -0.00000589
   0.60004240  0.40002445  0.60077874
  -0.00088036 -0.00075051  0.20085468
  -0.00093315  0.59989533  0.59999883
   0.39998977  0.20092806  0.59999738
   0.20068062  0.40003957  0.60084058
   0.79916512  0.20002093  0.19923619
   0.60000190  0.20021146  0.60004740
   0.40001704  0.20021059  0.79994599
   0.80001698  0.00089780  0.00082259
   0.19992457  0.20077837  0.79999165
   0.19991729  0.59995329  0.20000832
   0.39994005 -0.00007214  0.79996503
  -0.00014076  0.59914466  0.80004479
   0.40004239  0.40081500  0.20012757
  -0.00000024  0.80081567  0.79997796
   0.20012649  0.59983781  0.60010651
   0.80001533  0.80003483  0.39992802
   0.19998658  0.59977800  0.00006947
   0.60010390 -0.00007983  0.60004522
   0.60021619  0.00008941  0.00026967
   0.19983750 -0.00000606  0.60006268
   0.60084767  0.59989297  0.60013815
   0.19910772  0.79984766  0.20001484
   0.40005633  0.40087930  0.79914327
   0.19980250  0.00000110  0.20006094
  -0.00006214  0.59916250  0.39908819
   0.19999897  0.20017504  0.60003440
   0.79996883  0.59924585  0.79997717
   0.80003953  0.79990908  0.79914522
   0.60011641  0.20092209  0.80011662
   0.20082373  0.59911269  0.80002889
   0.19996491  0.80000062  0.79995116
   0.60089709  0.79991579  0.60002602
   0.60009775  0.39995346 -0.00075407
   0.40009414  0.79989682  0.39989440
   0.40011022  0.79984234  0.00001704
   0.40003257  0.40008480  0.40076531
  -0.00081573  0.59905858  0.00095733
   0.59933636  0.59907422  0.80003373
   0.60087009  0.39994369  0.39997252
   0.19982487  0.80005670  0.39993796
   0.80082172  0.00002064  0.79999931
   0.40006342  0.59912075  0.60086765
   0.40008662  0.20011866  0.00014047
   0.40091628  0.20007574  0.20001220
   0.40002141  0.59996541  0.00004069
   0.80008188 -0.00084227  0.59997145
   0.39999473  0.79905975  0.79992315
   0.60091601  0.00006465  0.20001430
   0.39999723  0.00000491  0.60003816
   0.60078802  0.39923403  0.20000856
   0.40003358  0.79984085  0.60010725
   0.80090240  0.39995259 -0.00000060
  -0.00006558  0.80076989  0.39915655
  -0.00085591  0.20090256 -0.00005978
   0.19909229  0.40003216 -0.00076972
  -0.00085122  0.80002441  0.60000595
   0.19997314  0.79997283  0.60003598
   0.19996800  0.20004060  0.20008241
Direct configuration=     3
   0.80335660  0.59970167  0.19668108
   0.79994835  0.79675256  0.00321822
   0.60065265  0.19998412  0.39635842
   0.80000348  0.20329859  0.80344806
   0.39972784  0.00008993  0.39991202
   0.60010537  0.79986696  0.79963993
   0.60023554  0.59996154  0.39971554
   0.59661377  0.60290092  0.19971188
   0.40060830  0.00011931  0.20004676
  -0.00064849  0.00044387 -0.00295798
   0.19611908  0.19992299  0.39975720
   0.80303194  0.20300123  0.39969866
  -0.00034024  0.20040377  0.80021249
   0.80014448  0.20348670  0.59971690
  -0.00021350  0.20053128  0.59666481
   0.19641348  0.00022234  0.39998827
  -0.00021356  0.00000291  0.60005159
   0.19980228  0.20063066 -0.00005612
   0.40013377  0.20049812  0.39963486
   0.60037702  0.79998216  0.39669323
   0.60053749  0.79965482  0.00354370
  -0.00292264  0.39989179  0.60019157
   0.60383085  0.20027809  0.00342860
   0.39996891  0.59963439  0.39675530
   0.80315991  0.00001159  0.39657885
  -0.00324092  0.40361709  0.19987215
   0.19969385  0.00023182 -0.00037187
   0.19653338  0.40000081  0.40026218
   0.39986989  0.40040565 -0.00035386
   0.60011881  0.00015834  0.79998481
   0.60066911 -0.00002056  0.39896350
   0.19637198  0.00014251  0.79998613
   0.19935527  0.79971297  0.00025401
   0.19984222  0.59953298  0.39929275
   0.19970810  0.40066175  0.19972363
  -0.00025802  0.79937482  0.00311491
   0.40362450  0.79621169  0.19984003
   0.80029023  0.59679274  0.40278844
  -0.00048534  0.20021227  0.20317077
   0.40007564  0.00011381  0.00007957
   0.60301727  0.59993973 -0.00002131
   0.60016333  0.40010711  0.60312808
  -0.00355540 -0.00301754  0.20338083
  -0.00374752  0.59960067  0.59993283
   0.39996105  0.20375083  0.59997286
   0.20269872  0.40015956  0.60338289
   0.79663356  0.20008117  0.19692486
   0.60000674  0.20080651  0.60011761
   0.40007206  0.20087319  0.79980565
   0.80006408  0.00355709  0.00331262
   0.19970301  0.20314114  0.79996560
   0.19966929  0.59981845  0.20002425
   0.39970192 -0.00033553  0.79986742
  -0.00048238  0.59662071  0.80023765
   0.40021855  0.40330689  0.20055491
   0.00001353  0.80323600  0.79998267
   0.20041793  0.59937714  0.60039180
   0.80005442  0.80006796  0.39972164
   0.19989073  0.59913320  0.00027874
   0.60040802 -0.00030055  0.60015397
   0.60084438  0.00034113  0.00104060
   0.19937173 -0.00001028  0.60024339
   0.60343118  0.59958669  0.60052020
   0.19646595  0.79939773  0.20005840
   0.40022691  0.40355331  0.79655521
   0.19918547  0.00000748  0.20022583
  -0.00023737  0.59668660  0.39631811
   0.19999504  0.20067712  0.60013169
   0.79982616  0.59697817  0.79991166
   0.80014814  0.79959390  0.79661173
   0.60045205  0.20371692  0.80051791
   0.20330527  0.59642930  0.80012011
   0.19986134  0.79994467  0.79981324
   0.60361231  0.79965532  0.60002896
   0.60042700  0.39982503 -0.00304772
   0.40035555  0.79959776  0.39960696
   0.40041732  0.79939150  0.00005116
   0.40012452  0.40033771  0.40310361
  -0.00328408  0.59620552  0.00384474
   0.59730698  0.59627563  0.80014296
   0.60351276  0.39978301  0.39994790
   0.19932875  0.80021390  0.39977026
   0.80331796  0.00013050  0.80005530
   0.40032280  0.59644159  0.60343591
   0.40039872  0.20047531  0.00055038
   0.40369960  0.20037012  0.20005596
   0.40012818  0.59985482  0.00017219
   0.80031539 -0.00333792  0.59982804
   0.39997914  0.79619376  0.79970355
   0.60369896  0.00026150  0.20005944
   0.39999024  0.00007109  0.60014342
   0.60317197  0.39695878  0.19997664
   0.40019748  0.79931663  0.60040263
   0.80362686  0.39980786  0.00000521
  -0.00026824  0.80304393  0.39660173
  -0.00345577  0.20364484 -0.00016049
   0.19634093  0.40012144 -0.00310153
  -0.00343613  0.80006735  0.59995836
   0.19984290  0.79987418  0.60012635
   0.19994134  0.20017136  0.20031343
Direct configuration=     4
   0.80735777  0.59928870  0.19272662
   0.79990539  0.79286275  0.00701984
   0.60160285  0.19993802  0.39174265
   0.79999454  0.20741350  0.80775794
   0.39918904  0.00021091  0.39983905
   0.60020778  0.79949836  0.79949512
   0.60051825  0.59988921  0.39940901
   0.59248422  0.60636261  0.19938183
   0.40143711  0.00002868  0.20011416
  -0.00138428  0.00113471 -0.00657585
   0.19120714  0.19983235  0.39951246
   0.80688964  0.20676407  0.39917409
  -0.00073287  0.20085766  0.80019884
   0.80027631  0.20770689  0.59963246
  -0.00043971  0.20110199  0.59240489
   0.19186610  0.00051526  0.40000084
  -0.00046388  0.00006175  0.60014598
   0.19942144  0.20136649 -0.00006877
   0.40007204  0.20110618  0.39920106
   0.60084047  0.79997047  0.39248639
   0.60119396  0.79931484  0.00799364
  -0.00643012  0.39979957  0.60046218
   0.60868469  0.20061340  0.00781152
   0.39992519  0.59918012  0.39279056
   0.80718395  0.00026379  0.39224677
  -0.00728624  0.40815974  0.19971057
   0.19932574  0.00054686 -0.00077908
   0.19213110  0.39995279  0.40076575
   0.39949077  0.40087946 -0.00088795
   0.60045495  0.00058965  0.80006278
   0.60164154 -0.00005100  0.39782347
   0.19172734  0.00050899  0.79996292
   0.19863960  0.79932128  0.00051507
   0.19966200  0.59901687  0.39855338
   0.19923562  0.40137716  0.19921419
  -0.00060926  0.79842048  0.00704462
   0.40799917  0.79142736  0.19962279
   0.80059999  0.59276359  0.40618686
  -0.00121687  0.20049466  0.20716245
   0.40018785  0.00023902  0.00013567
   0.60697228  0.59982476 -0.00003711
   0.60034169  0.40026981  0.60705572
  -0.00807090 -0.00679941  0.20744408
  -0.00845696  0.59917526  0.59963359
   0.39992124  0.20854496  0.59988237
   0.20597119  0.40035933  0.60764195
   0.79237611  0.20017856  0.19305594
   0.60001252  0.20165975  0.60000960
   0.40017436  0.20205935  0.79963993
   0.80013924  0.00786329  0.00749694
   0.19934772  0.20713886  0.79992197
   0.19926733  0.59961565  0.20002289
   0.39912266 -0.00091516  0.79973089
  -0.00079625  0.59256375  0.80073067
   0.40066723  0.40757203  0.20139749
   0.00007964  0.80717003  0.80020852
   0.20062593  0.59870474  0.60075011
   0.80010293  0.79990057  0.39942063
   0.19956033  0.59813651  0.00062360
   0.60088127 -0.00060679  0.60024963
   0.60180790  0.00069890  0.00218048
   0.19868032  0.00002770  0.60051478
   0.60783631  0.59913258  0.60105283
   0.19218236  0.79867770  0.20012717
   0.40051501  0.40808362  0.79222905
   0.19809181  0.00002764  0.20044738
  -0.00049853  0.59269473  0.39162812
   0.19998551  0.20142706  0.60026576
   0.79943991  0.59321752  0.79981122
   0.80030030  0.79894097  0.79250502
   0.60096312  0.20842591  0.80133768
   0.20744366  0.59192610  0.80028639
   0.19970371  0.79967252  0.79961495
   0.60817376  0.79920548  0.59979934
   0.60108132  0.39964072 -0.00693872
   0.40072088  0.79914230  0.39922679
   0.40084635  0.79872275  0.00005433
   0.40026209  0.40074905  0.40710225
  -0.00742519  0.59140716  0.00865471
   0.59382312  0.59158172  0.80034535
   0.60798066  0.39954189  0.40008958
   0.19860983  0.80042903  0.39955523
   0.80754152  0.00046432  0.80032942
   0.40096240  0.59188880  0.60758554
   0.40107537  0.20106165  0.00119347
   0.40841032  0.20106939  0.20014902
   0.40043880  0.59965023  0.00042206
   0.80066467 -0.00739059  0.59941435
   0.39995411  0.79130817  0.79938033
   0.60840980  0.00059951  0.20013881
   0.39998064  0.00034228  0.60028825
   0.60716196  0.39326653  0.19974238
   0.40066614  0.79830393  0.60080977
   0.80817608  0.39956641  0.00004198
  -0.00062824  0.80670554  0.39230263
  -0.00784997  0.20828277 -0.00007871
   0.19170563  0.40024424 -0.00702506
  -0.00781470  0.80004466  0.59968051
   0.19947501  0.79965736  0.60022023
   0.20011643  0.20041670  0.20063917
Direct configuration=     5
   0.81251390  0.59866291  0.18764822
   0.79989074  0.78777692  0.01189292
   0.60310064  0.19985658  0.38531683
   0.79996572  0.21300837  0.81363346
   0.39812889  0.00039539  0.39979035
   0.60027053  0.79868112  0.79978606
   0.60087356  0.59975162  0.39906796
   0.58700051  0.61081254  0.19895715
   0.40266925 -0.00047058  0.20022195
  -0.00229627  0.00225896 -0.01145131
   0.18437266  0.19972981  0.39927932
   0.81226024  0.21192238  0.39821776
  -0.00120203  0.20135823  0.79972193
   0.80038336  0.21331921  0.59995769
  -0.00067952  0.20170686  0.58639650
   0.18552536  0.00093283  0.40005538
  -0.00078143  0.00023451  0.60033051
   0.19866777  0.20229676  0.00002141
   0.39962046  0.20190837  0.39864347
   0.60145731  0.79996716  0.38659681
   0.60204149  0.79899897  0.01412384
  -0.01101260  0.39973441  0.60090471
   0.61542841  0.20106885  0.01396656
   0.39986181  0.59853979  0.38744548
   0.81280278  0.00097847  0.38625332
  -0.01279019  0.41434043  0.19950848
   0.19885720  0.00099245 -0.00123498
   0.18600301  0.39979964  0.40174113
   0.39861980  0.40146638 -0.00175005
   0.60122487  0.00155017  0.80032551
   0.60316191 -0.00009281  0.39655405
   0.18520076  0.00131379  0.79991409
   0.19783244  0.79874764  0.00076539
   0.19945107  0.59843485  0.39781103
   0.19842518  0.40213686  0.19825120
  -0.00114772  0.79688631  0.01248384
   0.41376356  0.78481829  0.19930374
   0.80096726  0.58721735  0.41073883
  -0.00243806  0.20092739  0.21264537
   0.40036731  0.00037223  0.00013984
   0.61272401  0.59960327 -0.00004217
   0.60053912  0.40052793  0.61246009
  -0.01431416 -0.01193752  0.21272924
  -0.01495624  0.59871383  0.59889951
   0.39988721  0.21529119  0.59967467
   0.21030508  0.40062595  0.61349146
   0.78652610  0.20033400  0.18777856
   0.60002010  0.20255187  0.59945373
   0.40033249  0.20380973  0.79952483
   0.80026959  0.01356678  0.01327866
   0.19887695  0.21273948  0.79987151
   0.19876467  0.59939390  0.19997512
   0.39798144 -0.00196627  0.79960070
  -0.00076598  0.58724802  0.80169391
   0.40157285  0.41360203  0.20277122
   0.00023431  0.81241289  0.80089755
   0.20040149  0.59797413  0.60102418
   0.80015690  0.79927745  0.39911595
   0.19879856  0.59692273  0.00107535
   0.60145554 -0.00091714  0.60022823
   0.60293953  0.00104869  0.00342225
   0.19792947  0.00015991  0.60081829
   0.61406678  0.59863214  0.60160593
   0.18646606  0.79775991  0.20021152
   0.40092058  0.41439270  0.78631551
   0.19649292  0.00007160  0.20066884
  -0.00082152  0.58744881  0.38506828
   0.19996825  0.20228107  0.60037524
   0.79865493  0.58811281  0.79968876
   0.80047230  0.79782080  0.78705832
   0.60157455  0.21496030  0.80271495
   0.21312320  0.58570444  0.80053898
   0.19954118  0.79898124  0.79940847
   0.61447456  0.79857742  0.59906318
   0.60216236  0.39942068 -0.01238947
   0.40109820  0.79860799  0.39888601
   0.40127440  0.79797842 -0.00003928
   0.40043001  0.40128598  0.41276257
  -0.01312098  0.58479396  0.01518032
   0.58884656  0.58510700  0.80064930
   0.61420684  0.39925428  0.40062278
   0.19784615  0.80063225  0.39938136
   0.81343254  0.00120697  0.80102964
   0.40220176  0.58552108  0.61304426
   0.40228737  0.20183272  0.00200899
   0.41499480  0.20240266  0.20030530
   0.40110730  0.59934172  0.00082936
   0.80107437 -0.01279973  0.59854750
   0.39992226  0.78440974  0.79903733
   0.61498032  0.00108538  0.20025023
   0.39996297  0.00101188  0.60042970
   0.61262013  0.38839015  0.19909054
   0.40167209  0.79666232  0.60122101
   0.81438289  0.39925202  0.00015246
  -0.00118160  0.81151337  0.38635372
  -0.01395951  0.21473866  0.00048395
   0.18527465  0.40035575 -0.01245499
  -0.01395704  0.79984912  0.59896071
   0.19869990  0.79926991  0.60024678
   0.20076651  0.20080826  0.20097334
Direct configuration=     6
   0.81820985  0.59784663  0.18206483
   0.79995531  0.78194984  0.01733366
   0.60513399  0.19978689  0.37747900
   0.79993221  0.21961819  0.82060790
   0.39641098  0.00064195  0.39981196
   0.60020452  0.79730984  0.80079088
   0.60124466  0.59954096  0.39878064
   0.58070263  0.61567297  0.19843730
   0.40427560 -0.00155738  0.20037787
  -0.00331761  0.00379991 -0.01725495
   0.17602780  0.19965925  0.39913711
   0.81876942  0.21808970  0.39677060
  -0.00165502  0.20174142  0.79854847
   0.80042758  0.21989653  0.60094709
  -0.00088310  0.20218069  0.57892394
   0.17775622  0.00142640  0.40017165
  -0.00114302  0.00055422  0.60064486
   0.19738618  0.20332516  0.00027298
   0.39855878  0.20279970  0.39801942
   0.60216723  0.79997990  0.37934414
   0.60292019  0.79881523  0.02150146
  -0.01620866  0.39971581  0.60157291
   0.62359693  0.20164908  0.02151657
   0.39978367  0.59773030  0.38107384
   0.81962111  0.00229461  0.37907862
  -0.01928412  0.42153737  0.19932850
   0.19835576  0.00149866 -0.00164657
   0.17854105  0.39950279  0.40330830
   0.39709541  0.40204666 -0.00293409
   0.60256520  0.00317495  0.80082544
   0.60518896 -0.00013808  0.39551198
   0.17717920  0.00267081  0.79983152
   0.19714762  0.79803973  0.00091485
   0.19925945  0.59792259  0.39734004
   0.19724975  0.40270337  0.19673536
  -0.00186079  0.79484305  0.01909127
   0.42036642  0.77689282  0.19890183
   0.80137280  0.58052207  0.41610486
  -0.00422139  0.20152795  0.21919207
   0.40059687  0.00047828  0.00005316
   0.62012036  0.59926664 -0.00004738
   0.60071276  0.40085784  0.61894870
  -0.02176206 -0.01793650  0.21857634
  -0.02280611  0.59831182  0.59763229
   0.39989348  0.22364237  0.59932608
   0.21530024  0.40091313  0.62047100
   0.77964420  0.20060840  0.18162394
   0.60003711  0.20319274  0.59824119
   0.40054710  0.20601281  0.79950970
   0.80054398  0.02018390  0.02024046
   0.19834088  0.21963408  0.79985328
   0.19829663  0.59923104  0.19987382
   0.39612790 -0.00359245  0.79952528
  -0.00013099  0.58116068  0.80319529
   0.40304611  0.42102264  0.20466779
   0.00045114  0.81853671  0.80219440
   0.19942717  0.59737784  0.60107276
   0.80022790  0.79804873  0.39894665
   0.19746165  0.59569502  0.00154624
   0.60201347 -0.00114754  0.60001459
   0.60397648  0.00123258  0.00437981
   0.19738890  0.00040251  0.60106703
   0.62182279  0.59821597  0.60207846
   0.17971660  0.79679289  0.20028062
   0.40142197  0.42196167  0.77935233
   0.19450650  0.00013015  0.20083211
  -0.00120267  0.58146102  0.37705576
   0.19995091  0.20305787  0.60037537
   0.79740244  0.58205824  0.79956258
   0.80066786  0.79620134  0.78073238
   0.60218981  0.22286756  0.80465735
   0.21992754  0.57820143  0.80087695
   0.19945809  0.79774812  0.79925713
   0.62205995  0.79784870  0.59763401
   0.60367618  0.39916258 -0.01907104
   0.40139367  0.79810280  0.39871936
   0.40157413  0.79736762 -0.00028805
   0.40061288  0.40189263  0.41978929
  -0.01988626  0.57692338  0.02273297
   0.58261086  0.57733243  0.80103614
   0.62179460  0.39895331  0.40172971
   0.19725875  0.80075639  0.39933276
   0.82059446  0.00250356  0.80228117
   0.40413630  0.57783207  0.61924739
   0.40413135  0.20267820  0.00290882
   0.42306896  0.20447474  0.20052011
   0.40224265  0.59896517  0.00141846
   0.80146987 -0.01914797  0.59714163
   0.39988428  0.77586257  0.79879015
   0.62297232  0.00168262  0.20039142
   0.39991122  0.00222623  0.60051074
   0.61906846  0.38281108  0.19787321
   0.40340134  0.79434889  0.60153632
   0.82167826  0.39892889  0.00035647
  -0.00194034  0.81699820  0.37921263
  -0.02134219  0.22255851  0.00172825
   0.17745691  0.40039922 -0.01902273
  -0.02150863  0.79942004  0.59767724
   0.19739757  0.79871523  0.60014894
   0.20213270  0.20136087  0.20123299
Direct configuration=     7
   0.82353302  0.59698360  0.17680037
   0.80013005  0.77602973  0.02271407
   0.60751184  0.19981136  0.36908251
   0.79995563  0.22647104  0.82785889
   0.39409911  0.00091836  0.39993293
   0.59995037  0.79551402  0.80253394
   0.60157805  0.59926470  0.39861116
   0.57448055  0.62011430  0.19781581
   0.40615190 -0.00320669  0.20057655
  -0.00439536  0.00561630 -0.02338101
   0.16703165  0.19966721  0.39908469
   0.82564617  0.22455476  0.39493382
  -0.00203501  0.20186903  0.79670740
   0.80041960  0.22676308  0.60261571
  -0.00106368  0.20242808  0.57070386
   0.16929734  0.00188741  0.40034734
  -0.00152702  0.00097051  0.60110696
   0.19552171  0.20433118  0.00067942
   0.39685953  0.20362039  0.39740078
   0.60289160  0.80001694  0.37141827
   0.60363102  0.79879955  0.02930605
  -0.02137068  0.39972200  0.60249661
   0.63207828  0.20238653  0.02947538
   0.39970437  0.59680021  0.37430033
   0.82669010  0.00412445  0.37172555
  -0.02592661  0.42863683  0.19929592
   0.19788900  0.00199088 -0.00193218
   0.17056556  0.39912115  0.40539555
   0.39498548  0.40247828 -0.00434214
   0.60441948  0.00538024  0.80150932
   0.60751267 -0.00019456  0.39504614
   0.16851626  0.00447972  0.79972307
   0.19677009  0.79733271  0.00093490
   0.19912487  0.59758427  0.39736084
   0.19581491  0.40290769  0.19476603
  -0.00266044  0.79258533  0.02618694
   0.42691943  0.76868779  0.19848353
   0.80182416  0.57338094  0.42172817
  -0.00644382  0.20223365  0.22599751
   0.40083648  0.00057779 -0.00011343
   0.62852670  0.59886635 -0.00006773
   0.60084804  0.40118266  0.62574646
  -0.02935604 -0.02393653  0.22393763
  -0.03114118  0.59799396  0.59595468
   0.39998329  0.23277734  0.59888227
   0.22032748  0.40114327  0.62771541
   0.77286928  0.20104160  0.17564658
   0.60007768  0.20334746  0.59635958
   0.40079060  0.20834900  0.79959603
   0.80109878  0.02690974  0.02756892
   0.19786707  0.22712337  0.79991685
   0.19804018  0.59919723  0.19976036
   0.39363954 -0.00577576  0.79952916
   0.00114318  0.57499871  0.80512376
   0.40499817  0.42895617  0.20688039
   0.00064425  0.82483273  0.80403105
   0.19761705  0.59705150  0.60085353
   0.80032621  0.79627934  0.39902691
   0.19555955  0.59466322  0.00188661
   0.60244868 -0.00123739  0.59964286
   0.60465714  0.00116926  0.00469212
   0.19730193  0.00067402  0.60121050
   0.63034726  0.59792461  0.60247668
   0.17256199  0.79596523  0.20027284
   0.40196808  0.42959676  0.77241380
   0.19240552  0.00016131  0.20089234
  -0.00168210  0.57553091  0.36851791
   0.19994448  0.20361202  0.60021186
   0.79580231  0.57571122  0.79945618
   0.80090759  0.79420992  0.77423922
   0.60268621  0.23120645  0.80695346
   0.22699433  0.57032395  0.80128243
   0.19950503  0.79605197  0.79920921
   0.63001771  0.79717091  0.59557251
   0.60541749  0.39885173 -0.02623456
   0.40155397  0.79773702  0.39878332
   0.40171864  0.79711736 -0.00068568
   0.40079216  0.40253414  0.42745117
  -0.02673967  0.56886046  0.03004861
   0.57583450  0.56924364  0.80146542
   0.62994445  0.39867776  0.40342169
   0.19696158  0.80078532  0.39946092
   0.82816346  0.00432602  0.80399446
   0.40659997  0.56993497  0.62521001
   0.40652896  0.20344262  0.00378902
   0.43183036  0.20711418  0.20077441
   0.40383630  0.59858184  0.00217989
   0.80177879 -0.02573215  0.59530523
   0.39984404  0.76652227  0.79870422
   0.63152658  0.00227824  0.20056772
   0.39982024  0.00397495  0.60047285
   0.62565941  0.37729532  0.19613565
   0.40586692  0.79157215  0.60169162
   0.82899188  0.39873469  0.00057051
  -0.00281264  0.82240226  0.37181738
  -0.02902816  0.23074676  0.00362785
   0.16905935  0.40034666 -0.02602387
  -0.02959415  0.79883768  0.59588339
   0.19559143  0.79811707  0.59990172
   0.20421050  0.20198374  0.20140713
Direct configuration=     8
   0.82746873  0.59635183  0.17278504
   0.80036016  0.77075549  0.02737576
   0.60990192  0.19994869  0.36115638
   0.80015189  0.23276907  0.83452514
   0.39144188  0.00119719  0.40011539
   0.59957324  0.79359092  0.80477248
   0.60184480  0.59897668  0.39857899
   0.56940535  0.62327334  0.19708682
   0.40811647 -0.00517335  0.20078873
  -0.00549087  0.00748538 -0.02907063
   0.15845587  0.19975475  0.39902165
   0.83199362  0.23055344  0.39296702
  -0.00235859  0.20169613  0.79449437
   0.80044068  0.23321847  0.60472633
  -0.00132724  0.20244558  0.56267927
   0.16103590  0.00216153  0.40056218
  -0.00189785  0.00141904  0.60172895
   0.19328705  0.20516562  0.00118108
   0.39472099  0.20423460  0.39683242
   0.60355369  0.80009061  0.36364796
   0.60408187  0.79895128  0.03665303
  -0.02594062  0.39970353  0.60366176
   0.63931322  0.20326580  0.03633614
   0.39962558  0.59581332  0.36784513
   0.83277663  0.00628514  0.36548263
  -0.03181547  0.43436432  0.19955659
   0.19750548  0.00240073 -0.00205609
   0.16307194  0.39879549  0.40773396
   0.39253500  0.40267806 -0.00582009
   0.60655853  0.00789216  0.80220770
   0.60980406 -0.00021454  0.39527245
   0.16020076  0.00648911  0.79954538
   0.19672226  0.79680780  0.00087289
   0.19902724  0.59744001  0.39794056
   0.19430033  0.40270686  0.19258742
  -0.00342358  0.79048084  0.03294566
   0.43234687  0.76152290  0.19811687
   0.80235144  0.56662206  0.42694441
  -0.00882362  0.20291997  0.23209187
   0.40105950  0.00075687 -0.00032207
   0.63700026  0.59847096 -0.00010867
   0.60096022  0.40142829  0.63199780
  -0.03587032 -0.02900945  0.22757101
  -0.03893296  0.59774320  0.59415668
   0.40018364  0.24164896  0.59844877
   0.22476846  0.40125799  0.63430795
   0.76765807  0.20157498  0.17120307
   0.60013917  0.20295398  0.59399937
   0.40103393  0.21039860  0.79974211
   0.80203985  0.03284104  0.03437337
   0.19752367  0.23438525  0.80008244
   0.19809734  0.59935259  0.19967394
   0.39078704 -0.00832170  0.79957964
   0.00287057  0.56943670  0.80718016
   0.40714999  0.43629819  0.20906396
   0.00072699  0.83051893  0.80612442
   0.19519649  0.59698479  0.60052126
   0.80046331  0.79414489  0.39939150
   0.19330254  0.59392192  0.00195176
   0.60270967 -0.00118580  0.59924397
   0.60490288  0.00088104  0.00424380
   0.19774973  0.00086424  0.60127152
   0.63866880  0.59769644  0.60293113
   0.16569129  0.79542654  0.20014565
   0.40250018  0.43564986  0.76689319
   0.19047391  0.00012282  0.20086151
  -0.00230606  0.57046220  0.36059176
   0.19996900  0.20387542  0.59988316
   0.79409404  0.56983351  0.79934627
   0.80121027  0.79205381  0.76833901
   0.60296216  0.23888570  0.80924141
   0.23327972  0.56315785  0.80174733
   0.19964142  0.79412689  0.79924184
   0.63734099  0.79667263  0.59315473
   0.60709567  0.39846415 -0.03290659
   0.40162312  0.79757316  0.39899659
   0.40176918  0.79735170 -0.00116004
   0.40094663  0.40326477  0.43483263