 100 100   0   0
  0.1064800E+02  0.1021150E-08  0.1021150E-08  0.1021150E-08  0.5000000E-15
  1.000000000000000E-004
  CAR 
 unknown system                          
     21.54559972     -4.25313835  301     14.70396094      1.00000000
     -4.253  0.0000E+00  0.0000E+00  0.0000E+00  0.0000E+00
     -4.167  0.0000E+00  0.0000E+00  0.0000E+00  0.0000E+00
     -4.081  0.0000E+00  0.0000E+00  0.0000E+00  0.0000E+00
     -3.995  0.0000E+00  0.0000E+00  0.0000E+00  0.0000E+00
     -3.909  0.0000E+00  0.0000E+00  0.0000E+00  0.0000E+00
     -3.823  0.0000E+00  0.0000E+00  0.0000E+00  0.0000E+00
     -3.737  0.0000E+00  0.0000E+00  0.0000E+00  0.0000E+00
     -3.651  0.0000E+00  0.0000E+00  0.0000E+00  0.0000E+00
     -3.565  0.0000E+00  0.0000E+00  0.0000E+00  0.0000E+00
     -3.479  0.0000E+00  0.0000E+00  0.0000E+00  0.0000E+00
     -3.393  0.0000E+00  0.0000E+00  0.0000E+00  0.0000E+00
     -3.307  0.8323E-09  0.7623E-09  0.7158E-10  0.6555E-10
     -3.221  0.4004E-03  0.3784E-03  0.3443E-04  0.3254E-04
     -3.135  0.7070E+00  0.6884E+00  0.6083E-01  0.5923E-01
     -3.049  0.8732E+01  0.8709E+01  0.8118E+00  0.8081E+00
     -2.963  0.2183E+01  0.2225E+01  0.9995E+00  0.9995E+00
     -2.877  0.5294E-02  0.5553E-02  0.1000E+01  0.1000E+01
     -2.791  0.5215E-07  0.5644E-07  0.1000E+01  0.1000E+01
     -2.705  0.2582E-14  0.2582E-14  0.1000E+01  0.1000E+01
     -2.619  0.0000E+00  0.0000E+00  0.1000E+01  0.1000E+01
     -2.533  0.0000E+00  0.0000E+00  0.1000E+01  0.1000E+01
     -2.447  0.0000E+00  0.0000E+00  0.1000E+01  0.1000E+01
     -2.361  0.0000E+00  0.0000E+00  0.1000E+01  0.1000E+01
     -2.275  0.0000E+00  0.0000E+00  0.1000E+01  0.1000E+01
     -2.189  0.1038E-09  0.9461E-10  0.1000E+01  0.1000E+01
     -2.103  0.1037E-03  0.9764E-04  0.1000E+01  0.1000E+01
     -2.017  0.3672E+00  0.3563E+00  0.1032E+01  0.1031E+01
     -1.931  0.8194E+01  0.8144E+01  0.1736E+01  0.1731E+01
     -1.845  0.1052E+02  0.1052E+02  0.2641E+01  0.2636E+01
     -1.759  0.8509E+01  0.8500E+01  0.3373E+01  0.3367E+01
     -1.673  0.1598E+02  0.1599E+02  0.4747E+01  0.4742E+01
     -1.587  0.5451E+01  0.5459E+01  0.5215E+01  0.5212E+01
     -1.501  0.1122E+02  0.1119E+02  0.6180E+01  0.6174E+01
     -1.415  0.9009E+01  0.9059E+01  0.6955E+01  0.6953E+01
     -1.329  0.5249E+00  0.5415E+00  0.7000E+01  0.7000E+01
     -1.243  0.2143E-03  0.2286E-03  0.7000E+01  0.7000E+01
     -1.157  0.3158E-09  0.3487E-09  0.7000E+01  0.7000E+01
     -1.071  0.0000E+00  0.0000E+00  0.7000E+01  0.7000E+01
     -0.985  0.0000E+00  0.0000E+00  0.7000E+01  0.7000E+01
     -0.899  0.4260E-13  0.3809E-13  0.7000E+01  0.7000E+01
     -0.813  0.5310E-06  0.4938E-06  0.7000E+01  0.7000E+01
     -0.727  0.2260E-01  0.2166E-01  0.7002E+01  0.7002E+01
     -0.641  0.5087E+01  0.5003E+01  0.7439E+01  0.7432E+01
     -0.555  0.2106E+02  0.2104E+02  0.9250E+01  0.9241E+01
     -0.469  0.2070E+02  0.2068E+02  0.1103E+02  0.1102E+02
     -0.383  0.1394E+02  0.1401E+02  0.1223E+02  0.1222E+02
     -0.297  0.1269E+02  0.1267E+02  0.1332E+02  0.1331E+02
     -0.211  0.1607E+02  0.1606E+02  0.1470E+02  0.1469E+02
     -0.125  0.1374E+02  0.1380E+02  0.1588E+02  0.1588E+02
     -0.039  0.5093E+01  0.5047E+01  0.1632E+02  0.1632E+02
      0.047  0.1700E+02  0.1701E+02  0.1778E+02  0.1778E+02
      0.133  0.2572E+01  0.2628E+01  0.1800E+02  0.1800E+02
      0.219  0.5188E+01  0.5136E+01  0.1845E+02  0.1845E+02
      0.305  0.6262E+01  0.6313E+01  0.1899E+02  0.1899E+02
      0.391  0.1217E+00  0.1256E+00  0.1900E+02  0.1900E+02
      0.477  0.1233E-04  0.1307E-04  0.1900E+02  0.1900E+02
      0.563  0.1477E-09  0.1361E-09  0.1900E+02  0.1900E+02
      0.649  0.1283E-03  0.1212E-03  0.1900E+02  0.1900E+02
      0.735  0.4087E+00  0.3973E+00  0.1904E+02  0.1903E+02
      0.821  0.9107E+01  0.9044E+01  0.1982E+02  0.1981E+02
      0.907  0.1839E+02  0.1837E+02  0.2140E+02  0.2139E+02
      0.993  0.7892E+01  0.7963E+01  0.2208E+02  0.2208E+02
      1.079  0.9134E+01  0.9120E+01  0.2286E+02  0.2286E+02
      1.165  0.8542E+01  0.8496E+01  0.2360E+02  0.2359E+02
      1.251  0.2024E+02  0.2021E+02  0.2534E+02  0.2533E+02
      1.337  0.1410E+02  0.1415E+02  0.2655E+02  0.2655E+02
      1.423  0.5155E+01  0.5212E+01  0.2699E+02  0.2699E+02
      1.509  0.5850E-01  0.6064E-01  0.2700E+02  0.2700E+02
      1.595  0.3231E-05  0.3446E-05  0.2700E+02  0.2700E+02
      1.681  0.5926E-12  0.6507E-12  0.2700E+02  0.2700E+02
      1.767  0.0000E+00  0.0000E+00  0.2700E+02  0.2700E+02
      1.853  0.1653E-11  0.1492E-11  0.2700E+02  0.2700E+02
      1.939  0.6511E-05  0.6073E-05  0.2700E+02  0.2700E+02
      2.025  0.8610E-01  0.8288E-01  0.2701E+02  0.2701E+02
      2.111  0.5707E+01  0.5646E+01  0.2750E+02  0.2749E+02
      2.197  0.5857E+01  0.5914E+01  0.2800E+02  0.2800E+02
      2.283  0.7161E+01  0.7087E+01  0.2862E+02  0.2861E+02
      2.369  0.1433E+02  0.1437E+02  0.2985E+02  0.2985E+02
      2.455  0.3264E+01  0.3271E+01  0.3013E+02  0.3013E+02
      2.541  0.1076E+02  0.1074E+02  0.3106E+02  0.3105E+02
      2.627  0.1004E+02  0.1007E+02  0.3192E+02  0.3192E+02
      2.713  0.1862E+01  0.1854E+01  0.3208E+02  0.3208E+02
      2.799  0.8928E+01  0.8910E+01  0.3285E+02  0.3284E+02
      2.885  0.1771E+01  0.1818E+01  0.3300E+02  0.3300E+02
      2.971  0.3167E-02  0.3371E-02  0.3300E+02  0.3300E+02
      3.057  0.1415E-02  0.1337E-02  0.3300E+02  0.3300E+02
      3.142  0.1372E+01  0.1337E+01  0.3312E+02  0.3312E+02
      3.228  0.1829E+02  0.1817E+02  0.3469E+02  0.3468E+02
      3.314  0.1669E+02  0.1678E+02  0.3613E+02  0.3612E+02
      3.400  0.1254E+02  0.1252E+02  0.3720E+02  0.3720E+02
      3.486  0.1574E+02  0.1570E+02  0.3856E+02  0.3855E+02
      3.572  0.2752E+02  0.2747E+02  0.4092E+02  0.4091E+02
      3.658  0.2910E+02  0.2913E+02  0.4343E+02  0.4342E+02
      3.744  0.2162E+02  0.2164E+02  0.4528E+02  0.4528E+02
      3.830  0.2274E+02  0.2271E+02  0.4724E+02  0.4723E+02
      3.916  0.2125E+02  0.2124E+02  0.4907E+02  0.4906E+02
      4.002  0.2064E+02  0.2062E+02  0.5084E+02  0.5083E+02
      4.088  0.2071E+02  0.2074E+02  0.5262E+02  0.5261E+02
      4.174  0.1531E+02  0.1539E+02  0.5394E+02  0.5394E+02
      4.260  0.7885E+01  0.7820E+01  0.5462E+02  0.5461E+02
      4.346  0.1447E+02  0.1453E+02  0.5586E+02  0.5586E+02
      4.432  0.3112E+01  0.3115E+01  0.5613E+02  0.5613E+02
      4.518  0.9005E+01  0.9011E+01  0.5690E+02  0.5690E+02
      4.604  0.1335E+01  0.1354E+01  0.5702E+02  0.5702E+02
      4.690  0.8789E+01  0.8699E+01  0.5777E+02  0.5777E+02
      4.776  0.2038E+02  0.2035E+02  0.5953E+02  0.5952E+02
      4.862  0.2216E+02  0.2219E+02  0.6143E+02  0.6142E+02
      4.948  0.2017E+02  0.2011E+02  0.6317E+02  0.6315E+02
      5.034  0.3197E+02  0.3197E+02  0.6592E+02  0.6590E+02
      5.120  0.1795E+02  0.1802E+02  0.6746E+02  0.6745E+02
      5.206  0.2164E+02  0.2160E+02  0.6932E+02  0.6931E+02
      5.292  0.2240E+02  0.2239E+02  0.7125E+02  0.7123E+02
      5.378  0.1892E+02  0.1895E+02  0.7287E+02  0.7286E+02
      5.464  0.2945E+02  0.2939E+02  0.7541E+02  0.7539E+02
      5.550  0.2136E+02  0.2145E+02  0.7724E+02  0.7724E+02
      5.636  0.1283E+02  0.1282E+02  0.7835E+02  0.7834E+02
      5.722  0.1282E+02  0.1282E+02  0.7945E+02  0.7944E+02
      5.808  0.6313E+01  0.6388E+01  0.7999E+02  0.7999E+02
      5.894  0.1918E+00  0.1936E+00  0.8001E+02  0.8001E+02
      5.980  0.5621E+01  0.5563E+01  0.8049E+02  0.8049E+02
      6.066  0.5833E+01  0.5890E+01  0.8099E+02  0.8099E+02
      6.152  0.9320E-01  0.9659E-01  0.8100E+02  0.8100E+02
      6.238  0.7529E-05  0.8040E-05  0.8100E+02  0.8100E+02
      6.324  0.2046E-11  0.2254E-11  0.8100E+02  0.8100E+02
      6.410  0.0000E+00  0.0000E+00  0.8100E+02  0.8100E+02
      6.496  0.0000E+00  0.0000E+00  0.8100E+02  0.8100E+02
      6.582  0.0000E+00  0.0000E+00  0.8100E+02  0.8100E+02
      6.668  0.0000E+00  0.0000E+00  0.8100E+02  0.8100E+02
      6.754  0.0000E+00  0.0000E+00  0.8100E+02  0.8100E+02
      6.840  0.0000E+00  0.0000E+00  0.8100E+02  0.8100E+02
      6.926  0.0000E+00  0.0000E+00  0.8100E+02  0.8100E+02
      7.012  0.2505E-08  0.2320E-08  0.8100E+02  0.8100E+02
      7.098  0.8076E-03  0.7694E-03  0.8100E+02  0.8100E+02
      7.184  0.9778E+00  0.9565E+00  0.8108E+02  0.8108E+02
      7.270  0.9575E+01  0.9546E+01  0.8191E+02  0.8190E+02
      7.356  0.1343E+02  0.1338E+02  0.8306E+02  0.8305E+02
      7.442  0.1105E+02  0.1113E+02  0.8401E+02  0.8401E+02
      7.528  0.1477E+02  0.1469E+02  0.8528E+02  0.8527E+02
      7.614  0.1717E+02  0.1721E+02  0.8676E+02  0.8675E+02
      7.700  0.1324E+02  0.1326E+02  0.8790E+02  0.8789E+02
      7.786  0.1478E+02  0.1472E+02  0.8917E+02  0.8916E+02
      7.872  0.1940E+02  0.1943E+02  0.9084E+02  0.9083E+02
      7.958  0.1360E+02  0.1361E+02  0.9201E+02  0.9200E+02
      8.044  0.1050E+02  0.1054E+02  0.9291E+02  0.9291E+02
      8.130  0.1038E+01  0.1070E+01  0.9300E+02  0.9300E+02
      8.216  0.1765E+01  0.1719E+01  0.9315E+02  0.9315E+02
      8.302  0.1380E+02  0.1376E+02  0.9434E+02  0.9433E+02
      8.388  0.1417E+02  0.1419E+02  0.9556E+02  0.9555E+02
      8.474  0.1311E+02  0.1310E+02  0.9669E+02  0.9668E+02
      8.560  0.2176E+02  0.2170E+02  0.9856E+02  0.9854E+02
      8.646  0.2568E+02  0.2572E+02  0.1008E+03  0.1008E+03
      8.732  0.1331E+02  0.1337E+02  0.1019E+03  0.1019E+03
      8.818  0.1092E+02  0.1086E+02  0.1028E+03  0.1028E+03
      8.904  0.2349E+02  0.2341E+02  0.1049E+03  0.1049E+03
      8.990  0.2926E+02  0.2931E+02  0.1074E+03  0.1074E+03
      9.076  0.1688E+02  0.1691E+02  0.1088E+03  0.1088E+03
      9.162  0.2888E+02  0.2874E+02  0.1113E+03  0.1113E+03
      9.248  0.2896E+02  0.2912E+02  0.1138E+03  0.1138E+03
      9.334  0.1270E+02  0.1266E+02  0.1149E+03  0.1149E+03
      9.420  0.2175E+02  0.2175E+02  0.1168E+03  0.1168E+03
      9.506  0.2206E+02  0.2205E+02  0.1187E+03  0.1187E+03
      9.592  0.1887E+02  0.1887E+02  0.1203E+03  0.1203E+03
      9.678  0.1849E+02  0.1856E+02  0.1219E+03  0.1219E+03
      9.764  0.7389E+01  0.7376E+01  0.1225E+03  0.1225E+03
      9.850  0.8003E+01  0.8010E+01  0.1232E+03  0.1232E+03
      9.936  0.1377E+02  0.1374E+02  0.1244E+03  0.1244E+03
     10.022  0.1058E+02  0.1060E+02  0.1253E+03  0.1253E+03
     10.108  0.1712E+02  0.1707E+02  0.1268E+03  0.1268E+03
     10.194  0.2418E+02  0.2416E+02  0.1289E+03  0.1288E+03
     10.280  0.2097E+02  0.2097E+02  0.1307E+03  0.1306E+03
     10.366  0.3216E+02  0.3213E+02  0.1334E+03  0.1334E+03
     10.452  0.2422E+02  0.2428E+02  0.1355E+03  0.1355E+03
     10.538  0.1416E+02  0.1417E+02  0.1367E+03  0.1367E+03
     10.624  0.1814E+02  0.1813E+02  0.1383E+03  0.1383E+03
     10.710  0.1609E+02  0.1604E+02  0.1397E+03  0.1397E+03
     10.796  0.3248E+02  0.3244E+02  0.1425E+03  0.1424E+03
     10.882  0.1936E+02  0.1948E+02  0.1441E+03  0.1441E+03
     10.968  0.1780E+02  0.1780E+02  0.1457E+03  0.1456E+03
     11.054  0.4122E+01  0.4191E+01  0.1460E+03  0.1460E+03
     11.140  0.8510E+01  0.8387E+01  0.1467E+03  0.1467E+03
     11.226  0.2274E+02  0.2279E+02  0.1487E+03  0.1487E+03
     11.312  0.8535E+01  0.8523E+01  0.1494E+03  0.1494E+03
     11.398  0.1994E+02  0.1994E+02  0.1511E+03  0.1511E+03
     11.484  0.1334E+02  0.1335E+02  0.1523E+03  0.1523E+03
     11.570  0.2069E+02  0.2067E+02  0.1541E+03  0.1541E+03
     11.656  0.1319E+02  0.1323E+02  0.1552E+03  0.1552E+03
     11.742  0.2302E+02  0.2291E+02  0.1572E+03  0.1572E+03
     11.828  0.2663E+02  0.2669E+02  0.1595E+03  0.1595E+03
     11.914  0.1808E+02  0.1812E+02  0.1610E+03  0.1610E+03
     12.000  0.2287E+02  0.2282E+02  0.1630E+03  0.1630E+03
     12.086  0.1712E+02  0.1716E+02  0.1645E+03  0.1645E+03
     12.172  0.1947E+02  0.1947E+02  0.1661E+03  0.1661E+03
     12.258  0.1645E+02  0.1645E+02  0.1676E+03  0.1675E+03
     12.344  0.1498E+02  0.1503E+02  0.1688E+03  0.1688E+03
     12.430  0.1001E+02  0.1000E+02  0.1697E+03  0.1697E+03
     12.516  0.1015E+02  0.1016E+02  0.1706E+03  0.1706E+03
     12.602  0.4860E+01  0.4915E+01  0.1710E+03  0.1710E+03
     12.688  0.3193E+00  0.3130E+00  0.1710E+03  0.1710E+03
     12.774  0.7526E+01  0.7480E+01  0.1717E+03  0.1717E+03
     12.860  0.4095E+01  0.4140E+01  0.1720E+03  0.1720E+03
     12.946  0.8090E+01  0.8033E+01  0.1727E+03  0.1727E+03
     13.032  0.1579E+02  0.1574E+02  0.1741E+03  0.1741E+03
     13.118  0.1436E+02  0.1442E+02  0.1753E+03  0.1753E+03
     13.204  0.1000E+02  0.1001E+02  0.1762E+03  0.1762E+03
     13.290  0.1236E+02  0.1234E+02  0.1772E+03  0.1772E+03
     13.376  0.9426E+01  0.9467E+01  0.1780E+03  0.1780E+03
     13.462  0.9230E+01  0.9225E+01  0.1788E+03  0.1788E+03
     13.548  0.2981E+01  0.2990E+01  0.1791E+03  0.1791E+03
     13.634  0.9692E+01  0.9670E+01  0.1799E+03  0.1799E+03
     13.720  0.1251E+02  0.1248E+02  0.1810E+03  0.1810E+03
     13.806  0.2057E+02  0.2057E+02  0.1828E+03  0.1828E+03
     13.892  0.1732E+02  0.1731E+02  0.1843E+03  0.1843E+03
     13.978  0.1695E+02  0.1692E+02  0.1857E+03  0.1857E+03
     14.064  0.2374E+02  0.2380E+02  0.1878E+03  0.1878E+03
     14.150  0.1678E+02  0.1674E+02  0.1892E+03  0.1892E+03
     14.236  0.1865E+02  0.1865E+02  0.1908E+03  0.1908E+03
     14.322  0.2225E+02  0.2226E+02  0.1927E+03  0.1927E+03
     14.408  0.2028E+02  0.2028E+02  0.1945E+03  0.1945E+03
     14.494  0.1564E+02  0.1565E+02  0.1958E+03  0.1958E+03
     14.580  0.1790E+02  0.1788E+02  0.1974E+03  0.1973E+03
     14.666  0.1739E+02  0.1715E+02  0.1988E+03  0.1988E+03
     14.752  0.2916E+02  0.2927E+02  0.2014E+03  0.2013E+03
     14.838  0.2123E+02  0.2132E+02  0.2032E+03  0.2032E+03
     14.924  0.2460E+02  0.2455E+02  0.2053E+03  0.2053E+03
     15.010  0.3183E+02  0.3188E+02  0.2080E+03  0.2080E+03
     15.096  0.2046E+02  0.2050E+02  0.2098E+03  0.2098E+03
     15.182  0.1898E+02  0.1892E+02  0.2114E+03  0.2114E+03
     15.268  0.2447E+02  0.2453E+02  0.2135E+03  0.2135E+03
     15.354  0.1356E+02  0.1349E+02  0.2147E+03  0.2147E+03
     15.440  0.3328E+02  0.3330E+02  0.2176E+03  0.2175E+03
     15.526  0.2294E+02  0.2290E+02  0.2195E+03  0.2195E+03
     15.612  0.3023E+02  0.3024E+02  0.2221E+03  0.2221E+03
     15.698  0.2296E+02  0.2301E+02  0.2241E+03  0.2241E+03
     15.784  0.2510E+02  0.2504E+02  0.2263E+03  0.2262E+03
     15.870  0.2637E+02  0.2645E+02  0.2285E+03  0.2285E+03
     15.956  0.1383E+02  0.1383E+02  0.2297E+03  0.2297E+03
     16.042  0.2144E+02  0.2146E+02  0.2316E+03  0.2316E+03
     16.128  0.2036E+02  0.2029E+02  0.2333E+03  0.2333E+03
     16.214  0.2812E+02  0.2814E+02  0.2357E+03  0.2357E+03
     16.300  0.2389E+02  0.2392E+02  0.2378E+03  0.2378E+03
     16.386  0.2443E+02  0.2441E+02  0.2399E+03  0.2399E+03
     16.472  0.1322E+02  0.1331E+02  0.2410E+03  0.2410E+03
     16.558  0.2043E+02  0.2027E+02  0.2428E+03  0.2428E+03
     16.644  0.2137E+02  0.2149E+02  0.2446E+03  0.2446E+03
     16.730  0.9339E+01  0.9326E+01  0.2454E+03  0.2454E+03
     16.816  0.1778E+02  0.1778E+02  0.2470E+03  0.2469E+03
     16.902  0.1946E+02  0.1942E+02  0.2486E+03  0.2486E+03
     16.988  0.1462E+02  0.1469E+02  0.2499E+03  0.2499E+03
     17.074  0.9502E+01  0.9490E+01  0.2507E+03  0.2507E+03
     17.160  0.3493E+01  0.3551E+01  0.2510E+03  0.2510E+03
     17.246  0.1838E-01  0.1924E-01  0.2510E+03  0.2510E+03
     17.332  0.4236E-06  0.4585E-06  0.2510E+03  0.2510E+03
     17.418  0.3098E-13  0.3615E-13  0.2510E+03  0.2510E+03
     17.504  0.0000E+00  0.0000E+00  0.2510E+03  0.2510E+03
     17.590  0.0000E+00  0.0000E+00  0.2510E+03  0.2510E+03
     17.676  0.5419E-10  0.4940E-10  0.2510E+03  0.2510E+03
     17.762  0.6765E-04  0.6364E-04  0.2510E+03  0.2510E+03
     17.848  0.2961E+00  0.2871E+00  0.2510E+03  0.2510E+03
     17.934  0.7680E+01  0.7633E+01  0.2517E+03  0.2517E+03
     18.020  0.7081E+01  0.7082E+01  0.2523E+03  0.2523E+03
     18.106  0.1497E+02  0.1492E+02  0.2536E+03  0.2536E+03
     18.192  0.1535E+02  0.1543E+02  0.2549E+03  0.2549E+03
     18.278  0.4742E+01  0.4715E+01  0.2553E+03  0.2553E+03
     18.364  0.1250E+02  0.1247E+02  0.2564E+03  0.2564E+03
     18.450  0.1576E+02  0.1577E+02  0.2577E+03  0.2577E+03
     18.536  0.1005E+02  0.1001E+02  0.2586E+03  0.2586E+03
     18.622  0.2537E+02  0.2534E+02  0.2608E+03  0.2608E+03
     18.708  0.2516E+02  0.2515E+02  0.2629E+03  0.2629E+03
     18.794  0.1679E+02  0.1683E+02  0.2644E+03  0.2644E+03
     18.880  0.1405E+02  0.1402E+02  0.2656E+03  0.2656E+03
     18.966  0.3155E+02  0.3147E+02  0.2683E+03  0.2683E+03
     19.052  0.3040E+02  0.3039E+02  0.2709E+03  0.2709E+03
     19.138  0.3328E+02  0.3335E+02  0.2738E+03  0.2738E+03
     19.224  0.2516E+02  0.2513E+02  0.2760E+03  0.2759E+03
     19.310  0.2787E+02  0.2789E+02  0.2784E+03  0.2783E+03
     19.396  0.1986E+02  0.1990E+02  0.2801E+03  0.2801E+03
     19.482  0.2312E+02  0.2307E+02  0.2820E+03  0.2820E+03
     19.568  0.2955E+02  0.2951E+02  0.2846E+03  0.2846E+03
     19.654  0.3345E+02  0.3349E+02  0.2875E+03  0.2875E+03
     19.740  0.3131E+02  0.3131E+02  0.2902E+03  0.2901E+03
     19.826  0.2678E+02  0.2704E+02  0.2925E+03  0.2925E+03
     19.912  0.2713E+02  0.2748E+02  0.2948E+03  0.2948E+03
     19.998  0.2582E+02  0.2555E+02  0.2970E+03  0.2970E+03
     20.084  0.1588E+02  0.1636E+02  0.2984E+03  0.2984E+03
     20.170  0.2390E+02  0.3018E+02  0.3004E+03  0.3010E+03
     20.256  0.2045E+02  0.1440E+02  0.3022E+03  0.3023E+03
     20.342  0.1120E+02  0.1760E+02  0.3032E+03  0.3038E+03
     20.428  0.9103E+01  0.2526E+01  0.3039E+03  0.3040E+03
     20.514  0.7071E+00  0.4219E-02  0.3040E+03  0.3040E+03
     20.600  0.4004E-03  0.3264E-07  0.3040E+03  0.3040E+03
     20.686  0.8323E-09  0.0000E+00  0.3040E+03  0.3040E+03
     20.772  0.0000E+00  0.0000E+00  0.3040E+03  0.3040E+03
     20.858  0.0000E+00  0.0000E+00  0.3040E+03  0.3040E+03
     20.944  0.0000E+00  0.0000E+00  0.3040E+03  0.3040E+03
     21.030  0.0000E+00  0.0000E+00  0.3040E+03  0.3040E+03
     21.116  0.0000E+00  0.0000E+00  0.3040E+03  0.3040E+03
     21.202  0.0000E+00  0.0000E+00  0.3040E+03  0.3040E+03
     21.288  0.0000E+00  0.0000E+00  0.3040E+03  0.3040E+03
     21.374  0.0000E+00  0.0000E+00  0.3040E+03  0.3040E+03
     21.460  0.0000E+00  0.0000E+00  0.3040E+03  0.3040E+03
     21.546  0.0000E+00  0.0000E+00  0.3040E+03  0.3040E+03
