  100  100    1    2
  0.1064800E+02  0.1021149E-08  0.1021149E-08  0.1021149E-08  0.5000000E-15
  1.000000000000000E-004
  CAR 
 unknown system                          
    400      1    304
 
  0.0000000E+00  0.0000000E+00  0.0000000E+00  0.1000000E+01
    1       -3.080468     -3.079995   1.000000   1.000000
    2       -1.951558     -1.951083   1.000000   1.000000
    3       -1.857971     -1.857486   1.000000   1.000000
    4       -1.743770     -1.743293   1.000000   1.000000
    5       -1.699289     -1.698868   1.000000   1.000000
    6       -1.559423     -1.558986   1.000000   1.000000
    7       -1.475168     -1.474644   1.000000   1.000000
    8       -0.624280     -0.623817   1.000000   1.000000
    9       -0.600114     -0.599669   1.000000   1.000000
   10       -0.541937     -0.541432   1.000000   1.000000
   11       -0.484503     -0.484093   1.000000   1.000000
   12       -0.458796     -0.458300   1.000000   1.000000
   13       -0.358922     -0.358470   1.000000   1.000000
   14       -0.283200     -0.282732   1.000000   1.000000
   15       -0.221491     -0.221044   1.000000   1.000000
   16       -0.168002     -0.167579   1.000000   1.000000
   17       -0.016247     -0.015740   1.000000   1.000000
   18        0.014104      0.014623   1.000000   1.000000
   19        0.222994      0.223414   1.000000   1.000000
   20        0.798632      0.799084   1.000000   1.000000
   21        0.871794      0.872257   1.000000   1.000000
   22        0.900970      0.901416   1.000000   1.000000
   23        1.041428      1.041882   1.000000   1.000000
   24        1.160134      1.160651   1.000000   1.000000
   25        1.229662      1.230127   1.000000   1.000000
   26        1.240653      1.241104   1.000000   1.000000
   27        1.331590      1.332030   1.000000   1.000000
   28        2.110715      2.111201   1.000000   1.000000
   29        2.279649      2.280104   1.000000   1.000000
   30        2.331043      2.331468   1.000000   1.000000
   31        2.494291      2.494683   1.000000   1.000000
   32        2.576950      2.577371   1.000000   1.000000
   33        2.762262      2.762859   1.000000   1.000000
   34        3.186290      3.186798   1.000000   1.000000
   35        3.226031      3.226515   1.000000   1.000000
   36        3.249236      3.249688   1.000000   1.000000
   37        3.349195      3.349636   1.000000   1.000000
   38        3.421736      3.422169   1.000000   1.000000
   39        3.498624      3.499076   1.000000   1.000000
   40        3.514806      3.515240   1.000000   1.000000
   41        3.565455      3.565865   1.000000   1.000000
   42        3.595513      3.596006   1.000000   1.000000
   43        3.608513      3.608962   1.000000   1.000000
   44        3.668353      3.668783   1.000000   1.000000
   45        3.694304      3.694726   1.000000   1.000000
   46        3.766221      3.766617   1.000000   1.000000
   47        3.788383      3.788815   1.000000   1.000000
   48        3.844599      3.845151   1.000000   1.000000
   49        3.890252      3.890750   1.000000   1.000000
   50        3.934385      3.934911   1.000000   1.000000
   51        3.999003      3.999557   1.000000   1.000000
   52        4.018519      4.018958   1.000000   1.000000
   53        4.091847      4.092296   1.000000   1.000000
   54        4.119369      4.119836   1.000000   1.000000
   55        4.258391      4.258891   1.000000   1.000000
   56        4.306892      4.307365   1.000000   1.000000
   57        4.472262      4.472744   1.000000   1.000000
   58        4.677862      4.678386   1.000000   1.000000
   59        4.730176      4.730632   1.000000   1.000000
   60        4.780977      4.781396   1.000000   1.000000
   61        4.810214      4.810711   1.000000   1.000000
   62        4.863299      4.863763   1.000000   1.000000
   63        4.935562      4.935972   1.000000   1.000000
   64        4.956539      4.956976   1.000000   1.000000
   65        5.002110      5.002580   1.000000   1.000000
   66        5.003977      5.004558   1.000000   1.000000
   67        5.052653      5.053100   1.000000   1.000000
   68        5.125746      5.126214   1.000000   1.000000
   69        5.183307      5.183693   1.000000   1.000000
   70        5.201763      5.202269   1.000000   1.000000
   71        5.274763      5.275281   1.000000   1.000000
   72        5.288998      5.289501   1.000000   1.000000
   73        5.362857      5.363309   1.000000   1.000000
   74        5.417202      5.417639   1.000000   1.000000
   75        5.430841      5.431267   1.000000   1.000000
   76        5.469168      5.469635   1.000000   1.000000
   77        5.491425      5.491858   1.000000   1.000000
   78        5.569113      5.569554   1.000000   1.000000
   79        5.648306      5.648833   1.000000   1.000000
   80        5.725411      5.725962   1.000000   1.000000
   81        5.981214      5.981676   1.000000   1.000000
   82        7.233014      7.233437   1.000000   1.000000
   83        7.327719      7.328231   1.000000   1.000000
   84        7.377684      7.378205   1.000000   1.000000
   85        7.504266      7.504652   1.000000   1.000000
   86        7.527826      7.528270   1.000000   1.000000
   87        7.596795      7.597215   1.000000   1.000000
   88        7.664290      7.664686   1.000000   1.000000
   89        7.757509      7.758000   1.000000   1.000000
   90        7.801390      7.801842   1.000000   1.000000
   91        7.846631      7.847126   1.000000   1.000000
   92        7.918476      7.918931   1.000000   1.000000
   93        7.996617      7.997215   1.000000   1.000000
   94        8.253199      8.253783   1.000000   1.000000
   95        8.310232      8.310676   1.000000   1.000000
   96        8.383165      8.383637   1.000000   1.000000
   97        8.465349      8.465794   1.000000   1.000000
   98        8.524046      8.524504   1.000000   1.000000
   99        8.554178      8.554694   1.000000   1.000000
  100        8.607465      8.607895   1.000000   1.000000
  101        8.616915      8.617370   1.000000   1.000000
  102        8.689623      8.690105   1.000000   1.000000
  103        8.802300      8.802730   1.000000   1.000000
  104        8.852771      8.853241   1.000000   1.000000
  105        8.903163      8.903664   1.000000   1.000000
  106        8.919758      8.920226   1.000000   1.000000
  107        8.951126      8.951580   1.000000   1.000000
  108        8.988813      8.989313   1.000000   1.000000
  109        9.055345      9.055803   1.000000   1.000000
  110        9.124607      9.125093   1.000000   1.000000
  111        9.143463      9.143913   1.000000   1.000000
  112        9.167383      9.167849   1.000000   1.000000
  113        9.186203      9.186766   1.000000   1.000000
  114        9.213966      9.214451   1.000000   1.000000
  115        9.315644      9.316134   1.000000   1.000000
  116        9.368684      9.369127   1.000000   1.000000
  117        9.397417      9.397894   1.000000   1.000000
  118        9.469963      9.470464   1.000000   1.000000
  119        9.488820      9.489210   1.000000   1.000000
  120        9.545381      9.545863   1.000000   1.000000
  121        9.616982      9.617492   1.000000   1.000000
  122        9.629526      9.630037   1.000000   1.000000
  123        9.762654      9.763092   1.000000   1.000000
  124        9.878983      9.879465   1.000000   1.000000
  125        9.941382      9.941854   1.000000   1.000000
  126       10.041398     10.041821   1.000000   1.000000
  127       10.096808     10.097261   1.000000   1.000000
  128       10.144182     10.144639   1.000000   1.000000
  129       10.180975     10.181426   1.000000   1.000000
  130       10.214403     10.214850   1.000000   1.000000
  131       10.294755     10.295193   1.000000   1.000000
  132       10.300245     10.300675   1.000000   1.000000
  133       10.335941     10.336423   1.000000   1.000000
  134       10.369618     10.370043   1.000000   1.000000
  135       10.396238     10.396683   1.000000   1.000000
  136       10.447467     10.447993   1.000000   1.000000
  137       10.527440     10.527891   1.000000   1.000000
  138       10.582938     10.583428   1.000000   1.000000
  139       10.632999     10.633462   1.000000   1.000000
  140       10.723404     10.723920   1.000000   1.000000
  141       10.731850     10.732361   1.000000   1.000000
  142       10.770686     10.771162   1.000000   1.000000
  143       10.790812     10.791339   1.000000   1.000000
  144       10.827563     10.828134   1.000000   1.000000
  145       10.918144     10.918587   1.000000   1.000000
  146       10.946346     10.946820   1.000000   1.000000
  147       11.140402     11.140928   1.000000   1.000000
  148       11.169745     11.170214   1.000000   1.000000
  149       11.201669     11.202192   1.000000   1.000000
  150       11.331368     11.331858   1.000000   1.000000
  151       11.351153     11.351599   1.000000   1.000000
  152       11.420540     11.421031   1.000000   1.000000
  153       11.505559     11.506077   1.000000   1.000000
  154       11.541441     11.541918   1.000000   1.000000
  155       11.587462     11.587922   1.000000   1.000000
  156       11.685825     11.686359   1.000000   1.000000
  157       11.724360     11.724822   1.000000   1.000000
  158       11.754410     11.754887   1.000000   1.000000
  159       11.774828     11.775349   1.000000   1.000000
  160       11.830943     11.831437   1.000000   1.000000
  161       11.875250     11.875707   1.000000   1.000000
  162       11.952509     11.952941   1.000000   1.000000
  163       11.979645     11.980154   1.000000   1.000000
  164       12.012552     12.012964   1.000000   1.000000
  165       12.095434     12.095920   1.000000   1.000000
  166       12.133549     12.133973   1.000000   1.000000
  167       12.192165     12.192621   1.000000   1.000000
  168       12.256257     12.256777   1.000000   1.000000
  169       12.311201     12.311718   1.000000   1.000000
  170       12.412274     12.412818   1.000000   1.000000
  171       12.508948     12.509384   1.000000   1.000000
  172       12.758431     12.758884   1.000000   1.000000
  173       12.929556     12.930002   1.000000   1.000000
  174       13.009245     13.009714   1.000000   1.000000
  175       13.047047     13.047551   1.000000   1.000000
  176       13.133171     13.133565   1.000000   1.000000
  177       13.234723     13.235196   1.000000   1.000000
  178       13.309246     13.309713   1.000000   1.000000
  179       13.427063     13.427486   1.000000   1.000000
  180       13.594297     13.594746   1.000000   1.000000
  181       13.689291     13.689700   1.000000   1.000000
  182       13.757060     13.757478   1.000000   1.000000
  183       13.778054     13.778506   1.000000   1.000000
  184       13.858806     13.859217   1.000000   1.000000
  185       13.898043     13.898491   1.000000   1.000000
  186       13.981940     13.982420   1.000000   1.000000
  187       14.004350     14.004843   1.000000   1.000000
  188       14.036052     14.036506   1.000000   1.000000
  189       14.132807     14.133293   1.000000   1.000000
  190       14.148989     14.149407   1.000000   1.000000
  191       14.235141     14.235571   1.000000   1.000000
  192       14.255453     14.255872   1.000000   1.000000
  193       14.309867     14.310296   1.000000   1.000000
  194       14.364284     14.364739   1.000000   1.000000
  195       14.403740     14.404153   1.000000   1.000000
  196       14.474365     14.474804   1.000000   1.000000
  197       14.539171     14.539647   0.999998   0.999998
  198       14.582784     14.583196   0.999695   0.999682
  199       14.667263     14.667976   0.850359   0.845618
  200       14.687905     14.689467   0.675128   0.659081
  201       14.712083     14.713200   0.409149   0.396922
  202       14.753005     14.753599   0.082693   0.080161
  203       14.816358     14.816806   0.000739   0.000707
  204       14.844501     14.844992   0.000035   0.000033
  205       14.904627     14.905078   0.000000   0.000000
  206       14.938352     14.938834   0.000000   0.000000
  207       14.955762     14.956215   0.000000   0.000000
  208       14.975001     14.975428   0.000000   0.000000
  209       15.035550     15.036000   0.000000   0.000000
  210       15.069945     15.070358   0.000000   0.000000
  211       15.149987     15.150426   0.000000   0.000000
  212       15.194742     15.195169   0.000000   0.000000
  213       15.207369     15.207789   0.000000   0.000000
  214       15.260108     15.260499   0.000000   0.000000
  215       15.365386     15.365824   0.000000   0.000000
  216       15.388447     15.388918   0.000000   0.000000
  217       15.393069     15.393599   0.000000   0.000000
  218       15.422035     15.422449   0.000000   0.000000
  219       15.503635     15.504050   0.000000   0.000000
  220       15.523884     15.524309   0.000000   0.000000
  221       15.550610     15.551076   0.000000   0.000000
  222       15.594756     15.595269   0.000000   0.000000
  223       15.619589     15.620027   0.000000   0.000000
  224       15.662391     15.662820   0.000000   0.000000
  225       15.722904     15.723437   0.000000   0.000000
  226       15.764390     15.764874   0.000000   0.000000
  227       15.786347     15.786827   0.000000   0.000000
  228       15.828900     15.829360   0.000000   0.000000
  229       15.855908     15.856363   0.000000   0.000000
  230       15.953556     15.953993   0.000000   0.000000
  231       15.988094     15.988527   0.000000   0.000000
  232       16.033284     16.033713   0.000000   0.000000
  233       16.107408     16.107903   0.000000   0.000000
  234       16.131757     16.132226   0.000000   0.000000
  235       16.168439     16.168878   0.000000   0.000000
  236       16.203164     16.203601   0.000000   0.000000
  237       16.243912     16.244420   0.000000   0.000000
  238       16.282447     16.282871   0.000000   0.000000
  239       16.340396     16.340883   0.000000   0.000000
  240       16.365905     16.366373   0.000000   0.000000
  241       16.407019     16.407466   0.000000   0.000000
  242       16.534870     16.535384   0.000000   0.000000
  243       16.545925     16.546492   0.000000   0.000000
  244       16.567923     16.568376   0.000000   0.000000
  245       16.631567     16.632049   0.000000   0.000000
  246       16.744453     16.744928   0.000000   0.000000
  247       16.778483     16.778943   0.000000   0.000000
  248       16.862312     16.862810   0.000000   0.000000
  249       16.886181     16.886638   0.000000   0.000000
  250       16.950381     16.950838   0.000000   0.000000
  251       17.055457     17.055962   0.000000   0.000000
  252       17.916793     17.917263   0.000000   0.000000
  253       18.039318     18.039776   0.000000   0.000000
  254       18.107992     18.108451   0.000000   0.000000
  255       18.144363     18.144818   0.000000   0.000000
  256       18.295518     18.295998   0.000000   0.000000
  257       18.375280     18.375722   0.000000   0.000000
  258       18.425705     18.426225   0.000000   0.000000
  259       18.538499     18.538942   0.000000   0.000000
  260       18.583548     18.583995   0.000000   0.000000
  261       18.594615     18.595072   0.000000   0.000000
  262       18.665724     18.666175   0.000000   0.000000
  263       18.680288     18.680754   0.000000   0.000000
  264       18.728089     18.728547   0.000000   0.000000
  265       18.800943     18.801460   0.000000   0.000000
  266       18.881949     18.882391   0.000000   0.000000
  267       18.929722     18.930210   0.000000   0.000000
  268       18.939425     18.939992   0.000000   0.000000
  269       18.956276     18.956766   0.000000   0.000000
  270       19.015446     19.015962   0.000000   0.000000
  271       19.038468     19.038953   0.000000   0.000000
  272       19.073756     19.074231   0.000000   0.000000
  273       19.092971     19.093424   0.000000   0.000000
  274       19.109374     19.109908   0.000000   0.000000
  275       19.179686     19.180166   0.000000   0.000000
  276       19.208222     19.208724   0.000000   0.000000
  277       19.238255     19.238703   0.000000   0.000000
  278       19.284529     19.285041   0.000000   0.000000
  279       19.307415     19.307820   0.000000   0.000000
  280       19.357912     19.358420   0.000000   0.000000
  281       19.428150     19.428636   0.000000   0.000000
  282       19.464966     19.465402   0.000000   0.000000
  283       19.491627     19.492117   0.000000   0.000000
  284       19.550602     19.550998   0.000000   0.000000
  285       19.559684     19.560155   0.000000   0.000000
  286       19.596618     19.597070   0.000000   0.000000
  287       19.609426     19.609810   0.000000   0.000000
  288       19.663498     19.663989   0.000000   0.000000
  289       19.682108     19.682484   0.000000   0.000000
  290       19.727317     19.727802   0.000000   0.000000
  291       19.738534     19.738969   0.000000   0.000000
  292       19.791916     19.792327   0.000000   0.000000
  293       19.835278     19.834115   0.000000   0.000000
  294       19.850928     19.851167   0.000000   0.000000
  295       19.915434     19.912207   0.000000   0.000000
  296       19.923393     19.923169   0.000000   0.000000
  297       19.984224     19.984865   0.000000   0.000000
  298       20.007460     20.005597   0.000000   0.000000
  299       20.100814     20.105059   0.000000   0.000000
  300       20.134014     20.123144   0.000000   0.000000
  301       20.173053     20.144095   0.000000   0.000000
  302       20.205731     20.179288   0.000000   0.000000
  303       20.276078     20.283670   0.000000   0.000000
  304       20.372930     20.307521   0.000000   0.000000
