       N       E                     dE             d eps       ncg     rms          rms(c)
RMM:   1     0.139096182789E+04    0.13910E+04   -0.74741E+04   608   0.514E+02
RMM:   2     0.141454435029E+02   -0.13768E+04   -0.13205E+04   608   0.120E+02
RMM:   3    -0.273818110064E+03   -0.28796E+03   -0.27988E+03   608   0.494E+01
RMM:   4    -0.354614837111E+03   -0.80797E+02   -0.67578E+02   608   0.283E+01
RMM:   5    -0.381050829361E+03   -0.26436E+02   -0.21364E+02   608   0.129E+01
RMM:   6    -0.390645163717E+03   -0.95943E+01   -0.73891E+01   608   0.762E+00
RMM:   7    -0.394084860596E+03   -0.34397E+01   -0.28267E+01   608   0.384E+00
RMM:   8    -0.395448849099E+03   -0.13640E+01   -0.11121E+01   608   0.235E+00
RMM:   9    -0.396220806840E+03   -0.77196E+00   -0.70644E+00  1503   0.125E+00
RMM:  10    -0.396312852402E+03   -0.92046E-01   -0.48443E-01  1458   0.242E-01
RMM:  11    -0.396314739399E+03   -0.18870E-02   -0.13166E-02  1359   0.425E-02
RMM:  12    -0.396314752472E+03   -0.13073E-04   -0.12770E-04  1098   0.575E-03    0.624E+01
RMM:  13    -0.401506631557E+03   -0.51919E+01   -0.12358E+01  1342   0.366E+00    0.376E+01
RMM:  14    -0.409146198696E+03   -0.76396E+01   -0.58833E+00  1341   0.285E+00    0.177E+01
RMM:  15    -0.409789632307E+03   -0.64343E+00   -0.13500E+00  1382   0.120E+00    0.372E+00
RMM:  16    -0.409940302354E+03   -0.15067E+00   -0.37344E-01  1402   0.690E-01    0.243E+00
RMM:  17    -0.410030130644E+03   -0.89828E-01   -0.11155E-01  1428   0.332E-01    0.128E+00
RMM:  18    -0.410067168641E+03   -0.37038E-01   -0.29125E-02  1409   0.190E-01    0.632E-01
RMM:  19    -0.410076109879E+03   -0.89412E-02   -0.11328E-02  1420   0.120E-01    0.313E-01
RMM:  20    -0.410079257448E+03   -0.31476E-02   -0.47973E-03  1429   0.792E-02    0.154E-01
RMM:  21    -0.410080219220E+03   -0.96177E-03   -0.14314E-03  1431   0.435E-02    0.102E-01
RMM:  22    -0.410080721472E+03   -0.50225E-03   -0.77767E-04  1408   0.329E-02    0.697E-02
RMM:  23    -0.410081110715E+03   -0.38924E-03   -0.76997E-04  1388   0.336E-02    0.461E-02
RMM:  24    -0.410081336495E+03   -0.22578E-03   -0.55815E-04  1387   0.285E-02    0.302E-02
RMM:  25    -0.410081450433E+03   -0.11394E-03   -0.33371E-04  1403   0.219E-02    0.200E-02
RMM:  26    -0.410081523942E+03   -0.73509E-04   -0.31456E-04  1374   0.215E-02    0.123E-02
RMM:  27    -0.410081557291E+03   -0.33349E-04   -0.18474E-04  1385   0.163E-02    0.682E-03
RMM:  28    -0.410081570605E+03   -0.13313E-04   -0.94710E-05  1410   0.116E-02    0.359E-03
RMM:  29    -0.410081574279E+03   -0.36747E-05   -0.29847E-05  1095   0.646E-03
   1 F= -.41008157E+03 E0= -.41004127E+03  d E =-.806138E-01  mag=     0.0155
