 vasp.5.4.4.18Apr17-6-g9f103f2a35 (build Sep 16 2020 16:20:45) complex          
  
 executed on             LinuxIFC date 2021.08.10  00:46:32
 running on   16 total cores
 distrk:  each k-point on   16 cores,    1 groups
 distr:  one band on NCORES_PER_BAND=   1 cores,   16 groups


--------------------------------------------------------------------------------------------------------


 INCAR:
 POTCAR:    PAW_PBE Si 05Jan2001                  

 ----------------------------------------------------------------------------- 
|                                                                             |
|           W    W    AA    RRRRR   N    N  II  N    N   GGGG   !!!           |
|           W    W   A  A   R    R  NN   N  II  NN   N  G    G  !!!           |
|           W    W  A    A  R    R  N N  N  II  N N  N  G       !!!           |
|           W WW W  AAAAAA  RRRRR   N  N N  II  N  N N  G  GGG   !            |
|           WW  WW  A    A  R   R   N   NN  II  N   NN  G    G                |
|           W    W  A    A  R    R  N    N  II  N    N   GGGG   !!!           |
|                                                                             |
|      For optimal performance we recommend to set                            |
|        NCORE= 4 - approx SQRT( number of cores)                             |
|      NCORE specifies how many cores store one orbital (NPAR=cpu/NCORE).     |
|      This setting can  greatly improve the performance of VASP for DFT.     |
|      The default,   NCORE=1            might be grossly inefficient         |
|      on modern multi-core architectures or massively parallel machines.     |
|      Do your own testing !!!!                                               |
|      Unfortunately you need to use the default for GW and RPA calculations. |
|      (for HF NCORE is supported but not extensively tested yet)             |
|                                                                             |
 ----------------------------------------------------------------------------- 

 POTCAR:    PAW_PBE Si 05Jan2001                  
   SHA256 =  79d9987ad8750f624c4d6acb2a16d13abf6a777132adc04dc6c8399be72b42bb Si
   COPYR  = (c) Copyright 05Jan2001 Georg Kresse                                
   COPYR  = This file is part of the software VASP. Any use, copying, and all ot
   COPYR  = If you do not have a valid VASP license, you may not use, copy or di
   VRHFIN =Si: s2p2                                                             
   LEXCH  = PE                                                                  
   EATOM  =   103.0669 eV,    7.5752 Ry                                         
                                                                                
   TITEL  = PAW_PBE Si 05Jan2001                                                
   LULTRA =        F    use ultrasoft PP ?                                      
   IUNSCR =        1    unscreen: 0-lin 1-nonlin 2-no                           
   RPACOR =    1.500    partial core radius                                     
   POMASS =   28.085; ZVAL   =    4.000    mass and valenz                      
   RCORE  =    1.900    outmost cutoff radius                                   
   RWIGS  =    2.480; RWIGS  =    1.312    wigner-seitz radius (au A)           
   ENMAX  =  245.345; ENMIN  =  184.009 eV                                      
   ICORE  =        2    local potential                                         
   LCOR   =        T    correct aug charges                                     
   LPAW   =        T    paw PP                                                  
   EAUG   =  322.069                                                            
   DEXC   =    0.000                                                            
   RMAX   =    1.950    core radius for proj-oper                               
   RAUG   =    1.300    factor for augmentation sphere                          
   RDEP   =    1.993    radius for radial grids                                 
   RDEPT  =    1.837    core radius for aug-charge                              
                                                                                
   Atomic configuration                                                         
    6 entries                                                                   
     n  l   j            E        occ.                                          
     1  0  0.50     -1785.8828   2.0000                                         
     2  0  0.50      -139.4969   2.0000                                         
     2  1  1.50       -95.5546   6.0000                                         
     3  0  0.50       -10.8127   2.0000                                         
     3  1  0.50        -4.0811   2.0000                                         
     3  2  1.50        -4.0817   0.0000                                         
   Description                                                                  
     l       E           TYP  RCUT    TYP  RCUT                                 
     0    -10.8127223     23  1.900                                             
     0     -7.6451159     23  1.900                                             
     1     -4.0811372     23  1.900                                             
     1      2.4879257     23  1.900                                             
     2     -4.0817478      7  1.900                                             
  local pseudopotential read in
  partial core-charges read in
  partial kinetic energy density read in
  atomic valenz-charges read in
  non local Contribution for L=           0  read in
    real space projection operators read in
  non local Contribution for L=           0  read in
    real space projection operators read in
  non local Contribution for L=           1  read in
    real space projection operators read in
  non local Contribution for L=           1  read in
    real space projection operators read in
    PAW grid and wavefunctions read in
 
   number of l-projection  operators is LMAX  =           4
   number of lm-projection operators is LMMAX =           8
 
 Optimization of the real space projectors (new method)

 maximal supplied QI-value         = 19.84
 optimisation between [QCUT,QGAM] = [  7.94, 15.87] = [ 17.64, 70.56] Ry 
 Optimized for a Real-space Cutoff    1.57 Angstroem

   l    n(q)    QCUT    max X(q) W(low)/X(q) W(high)/X(q)  e(spline) 
   0      7     7.937   159.560    0.16E-03    0.38E-03    0.13E-06
   0      7     7.937   115.863    0.15E-03    0.37E-03    0.13E-06
   1      7     7.937    88.339    0.42E-03    0.67E-03    0.13E-06
   1      7     7.937    48.592    0.41E-03    0.65E-03    0.13E-06
  PAW_PBE Si 05Jan2001                  :
 energy of atom  1       EATOM= -103.0669
 kinetic energy error for atom=    0.0056 (will be added to EATOM!!)
 
 
 POSCAR: Si                                      
  positions in cartesian coordinates
  No initial velocities read in
 exchange correlation table for  LEXCH =        8
   RHO(1)=    0.500       N(1)  =     2000
   RHO(2)=  100.500       N(2)  =     4000
 


--------------------------------------------------------------------------------------------------------


 ion  position               nearest neighbor table
   1  0.100  0.090  0.044-  54 2.02  41 2.33  31 2.39  40 2.39  75 2.42  16 2.42  53 2.44  85 2.49
                            17 2.60  82 2.61  81 2.67  90 3.14
   2  0.145  0.756  0.576-  59 2.22  37 2.29  33 2.30  77 2.31  52 2.44  67 2.46  48 2.49  58 2.50
                            92 2.77  23 2.80  83 2.96  94 3.01  45 3.07
   3  0.595  0.702  0.873-  32 2.08  60 2.17  39 2.25  30 2.26  72 2.35  44 2.37  25 2.39  28 2.42
                            73 2.64  22 2.65  15 2.92  62 3.12
   4  0.083  0.478  0.236-  68 2.23  19 2.24  41 2.26  76 2.29  93 2.30  45 2.33  99 2.36 100 2.56
                            58 2.56  21 2.57  50 2.63
   5  0.304  0.232  0.389-  40 2.15  64 2.19  93 2.31  56 2.33  35 2.34   6 2.42  76 2.43  12 2.52
                            89 2.55  46 2.58  96 2.61  68 2.66
   6  0.446  0.421  0.366-  49 2.13  91 2.22  76 2.28  95 2.35   5 2.42  12 2.44  89 2.46  93 2.46
                            46 2.56   7 2.57  98 2.60  52 2.88
   7  0.693  0.375  0.376-  95 2.27  79 2.28  74 2.33  10 2.34  12 2.37   9 2.39  20 2.45   6 2.57
                            98 2.68  99 2.70  50 2.90  91 2.93  84 3.00  36 3.06  46 3.08
   8  0.849  0.312  0.992-  53 2.21  57 2.22   9 2.23  97 2.27  41 2.31  75 2.34  38 2.47  19 2.55
                            61 2.58  44 2.60  82 3.11
   9  0.833  0.289  0.209-   8 2.23  74 2.25  57 2.26  20 2.27  41 2.37  99 2.38   7 2.39  31 2.45
                            68 2.63  75 2.67  95 2.88
  10  0.776  0.574  0.452-  11 2.14  83 2.21  98 2.25  79 2.32   7 2.34  50 2.34  43 2.34  58 2.48
                            99 2.50  22 2.51  23 2.75  91 2.86
  11  0.807  0.721  0.306-  10 2.14  15 2.25  99 2.26  86 2.31  98 2.34  58 2.44  21 2.55  34 2.58
                            23 2.59  26 2.69  43 2.75  92 3.04
  12  0.539  0.224  0.461-  36 2.20  84 2.22  96 2.35   7 2.37  20 2.37   6 2.44   5 2.52  89 2.57
                            46 2.57  69 2.66  55 2.67  35 2.75
  13  0.863  0.008  0.433-  23 2.28  74 2.30  71 2.38  34 2.39  31 2.43  92 2.46  20 2.57  84 2.58
                            86 2.59  87 2.72  69 2.96  64 3.09
  14  0.655  0.005  0.100-  28 2.19  65 2.23  26 2.29  57 2.34  32 2.34  75 2.36  34 2.44  86 2.51
                            20 2.57  29 2.60  18 2.63  46 3.06
  15  0.774  0.672  0.093-  99 2.23  11 2.25  62 2.30  28 2.38  72 2.45  26 2.50  44 2.53  21 2.69
                            19 2.70  86 2.82   3 2.92  98 2.96
  16  0.158  0.890  0.157-  92 2.28  21 2.29  70 2.34  47 2.37   1 2.42  85 2.50  88 2.56  40 2.69
                            54 2.79  45 2.80  31 2.95  17 3.03  33 3.06  86 3.07
  17  0.157  0.922  0.861-  67 2.16  63 2.25  85 2.28  88 2.29  90 2.43  77 2.44  54 2.48  59 2.57
                             1 2.60  82 2.61  70 2.63  16 3.03
  18  0.684  0.064  0.851-  29 2.21  87 2.33  61 2.38  25 2.42  28 2.43  55 2.45  14 2.63  97 2.68
                            75 2.68  82 2.70  32 2.75  57 2.88  84 3.01
  19  0.983  0.516  0.045-  24 2.15   4 2.24  99 2.27  41 2.37  62 2.44  21 2.46   8 2.55  38 2.57
                           100 2.67  15 2.70  88 2.83  53 3.13
  20  0.694  0.145  0.306-  34 2.20   9 2.27  74 2.30  12 2.37  46 2.45   7 2.45  57 2.53  14 2.57
                            13 2.57  84 2.73  96 2.80  31 2.95  69 3.03  86 3.13
  21  0.020  0.715  0.177-  16 2.29  45 2.33  19 2.46  88 2.50  92 2.51  58 2.51  11 2.55   4 2.57
                            86 2.60  85 2.62  99 2.65  15 2.69  62 3.04 100 3.06
  22  0.691  0.555  0.682-  79 2.17  60 2.22  83 2.27  91 2.31  38 2.39  73 2.51  10 2.51  30 2.55
                            43 2.58  36 2.63   3 2.65  44 2.74
  23  0.880  0.809  0.532-  43 2.17  83 2.21  77 2.23  13 2.28  87 2.44  58 2.48  60 2.58  11 2.59
                            92 2.65  10 2.75   2 2.80
  24  0.124  0.465  0.898-  66 2.10  19 2.15 100 2.20  48 2.22  53 2.33  81 2.55  42 2.59  88 2.76
                            51 2.76  38 2.77  41 2.85
  25  0.586  0.886  0.729-  60 2.20  94 2.24  69 2.27  55 2.37   3 2.39  18 2.42  32 2.45  30 2.48
                            43 2.51  87 2.64  63 2.70  28 2.89
  26  0.591  0.807  0.183-  34 2.10  14 2.29  72 2.36  98 2.42  32 2.44  47 2.46  15 2.50  27 2.51
                            65 2.59  11 2.69  28 2.77  86 2.97  70 3.06
  27  0.501  0.792  0.411-  43 2.19  98 2.28  47 2.33  52 2.34  34 2.39  69 2.40  96 2.48  26 2.51
                            33 2.53  94 2.63  91 3.02  49 3.05  30 3.11
  28  0.742  0.863  0.964-  32 2.17  14 2.19  15 2.38   3 2.42  18 2.43  85 2.44  62 2.44  60 2.51
                            86 2.72  75 2.74  26 2.77  25 2.89  87 3.11
  29  0.508  0.145  0.946-  18 2.21  78 2.25  61 2.25  57 2.27  54 2.40  63 2.54  65 2.59  14 2.60
                            55 2.64  32 2.79  80 2.81  81 2.83  46 2.87
  30  0.472  0.675  0.691-  91 2.18   3 2.26  42 2.27  67 2.34  52 2.40  73 2.44  25 2.48  39 2.48
                            22 2.55  94 2.56  43 2.73  60 3.05  27 3.11
  31  0.969  0.094  0.237-  86 2.19  75 2.27   1 2.39  68 2.40  13 2.43   9 2.45  74 2.56  64 2.59
                            41 2.60  92 2.61  20 2.95  16 2.95  40 2.97
  32  0.529  0.873  0.961-   3 2.08  70 2.09  28 2.17  14 2.34  26 2.44  25 2.45  65 2.56  63 2.58
                            18 2.75  39 2.76  29 2.79  72 2.97
  33  0.270  0.879  0.435-  94 2.29   2 2.30  64 2.34  47 2.37  92 2.38  59 2.47  96 2.50  27 2.53
                            52 2.54  45 2.72  35 2.99  16 3.06
  34  0.669  0.932  0.327-  26 2.10  20 2.20  69 2.23  86 2.37  13 2.39  27 2.39  96 2.43  14 2.44
                            11 2.58  43 2.76  65 3.04
  35  0.324  0.123  0.588-  55 2.17  90 2.27   5 2.34  94 2.39  56 2.39  59 2.48  89 2.51  64 2.56
                            78 2.64  63 2.70  12 2.75  96 2.75  33 2.99  66 3.09
  36  0.572  0.329  0.646-  89 2.14  12 2.20  61 2.23  79 2.28  73 2.33  91 2.35  84 2.40  55 2.45
                            78 2.47  22 2.63  97 3.01   7 3.06
  37  0.131  0.533  0.573-  76 2.13   2 2.29  48 2.30  50 2.34  51 2.35  58 2.37  42 2.44  83 2.59
                            52 2.59  66 2.69  56 2.84  89 3.02
  38  0.864  0.488  0.825-  44 2.23  62 2.27  97 2.33  51 2.36  22 2.39  83 2.43   8 2.47  48 2.56
                            19 2.57  24 2.77  79 2.82  53 2.97  61 3.04  60 3.04
  39  0.385  0.649  0.916-   3 2.25  67 2.26 100 2.28  70 2.29  42 2.31  72 2.35  73 2.43  30 2.48
                            88 2.60  32 2.76  80 2.79
  40  0.257  0.127  0.212-   5 2.15  54 2.27  64 2.30  65 2.32   1 2.39  93 2.42  46 2.55  16 2.69
                            96 2.80  81 2.83  68 2.95  31 2.97  41 3.02
  41  0.042  0.301  0.109-   4 2.26  53 2.30   8 2.31   1 2.33  68 2.36  19 2.37   9 2.37  31 2.60
                            93 2.65  81 2.67  24 2.85  75 2.91  40 3.02
  42  0.306  0.536  0.737-  73 2.22  30 2.27  66 2.28  39 2.31  89 2.42  37 2.44  67 2.55  24 2.59
                            48 2.66  52 2.74  91 2.92  78 3.02
  43  0.672  0.760  0.536-  23 2.17  27 2.19  60 2.30  10 2.34  69 2.36  25 2.51  22 2.58  30 2.73
                            98 2.74  11 2.75  34 2.76  91 2.87  83 2.89  87 3.15
  44  0.680  0.498  0.944-  38 2.23  72 2.24  73 2.32  61 2.34   3 2.37  15 2.53   8 2.60  95 2.73
                            22 2.74  80 2.79  62 3.00  57 3.03
  45  0.206  0.660  0.297-  47 2.16  49 2.20  21 2.33   4 2.33  76 2.36  58 2.36  52 2.47 100 2.71
                            33 2.72  16 2.80  92 2.82   2 3.07
  46  0.487  0.225  0.214-  57 2.31  65 2.32  95 2.37  20 2.45  40 2.55   6 2.56  12 2.57   5 2.58
                            93 2.59  96 2.61  80 2.74  29 2.87  14 3.06   7 3.08
  47  0.356  0.797  0.235-  45 2.16  70 2.20  49 2.30  27 2.33  33 2.37  16 2.37  26 2.46  65 2.52
                            96 2.93  52 3.06
  48  0.064  0.627  0.766-  24 2.22  83 2.22  77 2.25  37 2.30  62 2.32  88 2.45   2 2.49  38 2.56
                            42 2.66  67 2.77  51 2.81
  49  0.394  0.575  0.235-   6 2.13  45 2.20  72 2.25  47 2.30  98 2.36 100 2.40  93 2.50  95 2.53
                            76 2.70  52 2.82  80 2.89  27 3.05
  50  0.959  0.436  0.458-  68 2.17  58 2.20  79 2.29  74 2.31  10 2.34  37 2.34  51 2.34  83 2.58
                             4 2.63  99 2.72  56 2.73  76 2.82   7 2.90
  51  1.000  0.375  0.676-  66 2.11  97 2.28  56 2.30  50 2.34  37 2.35  38 2.36  79 2.46  53 2.50
                            83 2.71  24 2.76  48 2.81  71 2.82  90 3.12
  52  0.343  0.649  0.496-  91 2.21  27 2.34  30 2.40   2 2.44  76 2.47  45 2.47  33 2.54  37 2.59
                            42 2.74  49 2.82   6 2.88  94 2.93  47 3.06  89 3.08
  53  0.030  0.257  0.888-  82 2.16   8 2.21  41 2.30  24 2.33  97 2.35  66 2.36  90 2.40   1 2.44
                            51 2.50  81 2.62  75 2.89  38 2.97  19 3.13
  54  0.291  0.070  1.000-   1 2.02  63 2.16  81 2.16  65 2.26  40 2.27  29 2.40  70 2.42  17 2.48
                            16 2.79  90 2.95  78 3.04
  55  0.509  0.102  0.690-  35 2.17  78 2.26  69 2.27  63 2.28  25 2.37  94 2.44  36 2.45  18 2.45
                            84 2.47  29 2.64  12 2.67  61 2.87
  56  0.138  0.257  0.543-  71 2.23  68 2.27  51 2.30  64 2.31  66 2.33   5 2.33  35 2.39  90 2.46
                            76 2.65  89 2.69  50 2.73  37 2.84  59 3.02  74 3.05
  57  0.665  0.233  0.076-   8 2.22   9 2.26  29 2.27  46 2.31  14 2.34  61 2.40  95 2.45  75 2.51
                            20 2.53  18 2.88  80 2.96  44 3.03
  58  0.005  0.641  0.411-  50 2.20  45 2.36  37 2.37  11 2.44  83 2.47  10 2.48  23 2.48   2 2.50
                            21 2.51   4 2.56  92 2.58  99 2.71  76 2.95
  59  0.137  0.970  0.615-  71 2.10  90 2.13   2 2.22  77 2.37  64 2.40  33 2.47  35 2.48  17 2.57
                            94 2.75  67 2.91  92 2.94  56 3.02  63 3.08
  60  0.755  0.753  0.745-   3 2.17  25 2.20  22 2.22  62 2.29  43 2.30  83 2.36  87 2.44  77 2.50
                            28 2.51  23 2.58  38 3.04  30 3.05
  61  0.640  0.293  0.850-  97 2.10  36 2.23  29 2.25  44 2.34  73 2.34  18 2.38  57 2.40   8 2.58
                            78 2.58  55 2.87  80 2.91  38 3.04
  62  0.898  0.692  0.907-  38 2.27  60 2.29  15 2.30  85 2.30  48 2.32  28 2.44  19 2.44  77 2.52
                            88 2.65  83 2.97  44 3.00  21 3.04   3 3.12
  63  0.360  0.993  0.816-  54 2.16  17 2.25  94 2.25  55 2.28  67 2.33  90 2.52  29 2.54  32 2.58
                            70 2.66  35 2.70  25 2.70  78 2.76  59 3.08
  64  0.157  0.077  0.407-   5 2.19  40 2.30  56 2.31  92 2.32  33 2.34  59 2.40  68 2.49  35 2.56
                            31 2.59  71 2.65  13 3.09  96 3.11
  65  0.443  0.011  0.151-  14 2.23  54 2.26  96 2.28  40 2.32  46 2.32  70 2.43  47 2.52  32 2.56
                            29 2.59  26 2.59  34 3.04
  66  0.191  0.344  0.747-  24 2.10  51 2.11  90 2.20  42 2.28  78 2.31  56 2.33  53 2.36  89 2.48
                            81 2.60  37 2.69  35 3.09
  67  0.286  0.782  0.770-  17 2.16  39 2.26  94 2.29  63 2.33  30 2.34   2 2.46  88 2.54  42 2.55
                            70 2.72  48 2.77  59 2.91  77 3.12
  68  0.054  0.288  0.339-  74 2.15  50 2.17   4 2.23  56 2.27  41 2.36  31 2.40  64 2.49  76 2.57
                             9 2.63   5 2.66  93 2.73  40 2.95
  69  0.590  0.976  0.526-  96 2.15  34 2.23  25 2.27  55 2.27  84 2.27  94 2.31  43 2.36  27 2.40
                            12 2.66  87 2.95  13 2.96  20 3.03
  70  0.338  0.839  0.025-  32 2.09  47 2.20  39 2.29  88 2.33  16 2.34  54 2.42  65 2.43  17 2.63
                            63 2.66  67 2.72  26 3.06 100 3.11
  71  0.987  0.110  0.601-  59 2.10  56 2.23  87 2.34  90 2.36  13 2.38  82 2.49  74 2.56  64 2.65
                            51 2.82  84 2.86  97 2.88  77 3.12
  72  0.544  0.607  0.077-  95 2.17  44 2.24  49 2.25   3 2.35  39 2.35  26 2.36  15 2.45  80 2.47
                            98 2.57  32 2.97  73 3.10
  73  0.500  0.469  0.810-  42 2.22  44 2.32  80 2.32  36 2.33  61 2.34  78 2.39  39 2.43  30 2.44
                            22 2.51   3 2.64  91 2.80  89 2.81  72 3.10
  74  0.867  0.233  0.419-  68 2.15   9 2.25  20 2.30  13 2.30  50 2.31   7 2.33  84 2.36  79 2.48
                            31 2.56  71 2.56  56 3.05
  75  0.863  0.090  0.042-  82 2.27  31 2.27   8 2.34  14 2.36  86 2.40   1 2.42  85 2.45  57 2.51
                             9 2.67  18 2.68  28 2.74  53 2.89  41 2.91
  76  0.229  0.457  0.405-  37 2.13   6 2.28   4 2.29  93 2.29  45 2.36   5 2.43  52 2.47  89 2.57
                            68 2.57  56 2.65  49 2.70  50 2.82  58 2.95
  77  0.987  0.828  0.722-  23 2.23  48 2.25  87 2.26   2 2.31  59 2.37  17 2.44  60 2.50  62 2.52
                            83 2.56  82 2.76  85 2.80  67 3.12  71 3.12
  78  0.395  0.260  0.796-  29 2.25  55 2.26  81 2.30  66 2.31  89 2.38  73 2.39  36 2.47  61 2.58
                            35 2.64  80 2.70  90 2.73  63 2.76  42 3.02  54 3.04
  79  0.778  0.388  0.583-  22 2.17  36 2.28   7 2.28  50 2.29  10 2.32  97 2.37  84 2.46  51 2.46
                            74 2.48  83 2.66  38 2.82  91 3.06
  80  0.436  0.400  0.017-  81 2.13  73 2.32  95 2.37  72 2.47 100 2.55  93 2.58  78 2.70  46 2.74
                            39 2.79  44 2.79  29 2.81  49 2.89  61 2.91  57 2.96
  81  0.269  0.280  0.981-  80 2.13  54 2.16  78 2.30  93 2.46  24 2.55  66 2.60  53 2.62  41 2.67
                             1 2.67  29 2.83  40 2.83 100 2.90  90 3.03
  82  0.948  0.068  0.839-  87 2.16  53 2.16  75 2.27  85 2.44  97 2.46  71 2.49  90 2.50  17 2.61
                             1 2.61  18 2.70  77 2.76   8 3.11
  83  0.898  0.615  0.626-  10 2.21  23 2.21  48 2.22  22 2.27  60 2.36  38 2.43  58 2.47  77 2.56
                            50 2.58  37 2.59  79 2.66  51 2.71  43 2.89   2 2.96  62 2.97
  84  0.713  0.156  0.572-  12 2.22  69 2.27  74 2.36  36 2.40  79 2.46  55 2.47  87 2.50  13 2.58
                            97 2.64  20 2.73  71 2.86   7 3.00  18 3.01
  85  0.978  0.886  0.990-  17 2.28  62 2.30  88 2.40  28 2.44  82 2.44  86 2.45  75 2.45   1 2.49
                            16 2.50  21 2.62  77 2.80
  86  0.861  0.913  0.198-  31 2.19  11 2.31  34 2.37  75 2.40  85 2.45  14 2.51  92 2.54  13 2.59
                            21 2.60  28 2.72  15 2.82  26 2.97  16 3.07  20 3.13
  87  0.825  0.976  0.694-  82 2.16  77 2.26  18 2.33  71 2.34  23 2.44  60 2.44  84 2.50  25 2.64
                            13 2.72  69 2.95  97 3.09  28 3.11  43 3.15
  88  0.148  0.725  0.968- 100 2.21  17 2.29  70 2.33  85 2.40  48 2.45  21 2.50  67 2.54  16 2.56
                            39 2.60  62 2.65  24 2.76  19 2.83
  89  0.374  0.364  0.588-  36 2.14  91 2.25  78 2.38  42 2.42   6 2.46  66 2.48  35 2.51   5 2.55
                            12 2.57  76 2.57  56 2.69  73 2.81  37 3.02  52 3.08
  90  0.167  0.130  0.746-  59 2.13  66 2.20  35 2.27  71 2.36  53 2.40  17 2.43  56 2.46  82 2.50
                            63 2.52  78 2.73  54 2.95  81 3.03  51 3.12   1 3.14
  91  0.515  0.527  0.542-  30 2.18  52 2.21   6 2.22  89 2.25  22 2.31  36 2.35  98 2.60  73 2.80
                            10 2.86  43 2.87  42 2.92   7 2.93  27 3.02  79 3.06
  92  0.052  0.882  0.354-  16 2.28  64 2.32  33 2.38  13 2.46  21 2.51  86 2.54  58 2.58  31 2.61
                            23 2.65   2 2.77  45 2.82  59 2.94  11 3.04
  93  0.274  0.363  0.207-  76 2.29   4 2.30   5 2.31  40 2.42  81 2.46   6 2.46 100 2.48  49 2.50
                            80 2.58  46 2.59  41 2.65  68 2.73
  94  0.398  0.903  0.618-  25 2.24  63 2.25  67 2.29  33 2.29  69 2.31  35 2.39  55 2.44  30 2.56
                            27 2.63  59 2.75  96 2.87  52 2.93   2 3.01
  95  0.590  0.431  0.187-  72 2.17   7 2.27  98 2.33   6 2.35  46 2.37  80 2.37  57 2.45  49 2.53
                            44 2.73   9 2.88  99 2.89
  96  0.455  0.028  0.373-  69 2.15  65 2.28  12 2.35  34 2.43  27 2.48  33 2.50   5 2.61  46 2.61
                            35 2.75  40 2.80  20 2.80  94 2.87  47 2.93  64 3.11
  97  0.830  0.268  0.774-  61 2.10   8 2.27  51 2.28  38 2.33  53 2.35  79 2.37  82 2.46  84 2.64
                            18 2.68  71 2.88  36 3.01  87 3.09
  98  0.604  0.615  0.321-  10 2.25  27 2.28  95 2.33  11 2.34  49 2.36  26 2.42  72 2.57  91 2.60
                             6 2.60   7 2.68  43 2.74  99 2.91  15 2.96
  99  0.856  0.520  0.227-  15 2.23  11 2.26  19 2.27   4 2.36   9 2.38  10 2.50  21 2.65   7 2.70
                            58 2.71  50 2.72  95 2.89  98 2.91
 100  0.241  0.552  0.057-  24 2.20  88 2.21  39 2.28  49 2.40  93 2.48  80 2.55   4 2.56  19 2.67
                            45 2.71  81 2.90  21 3.06  70 3.11
 

IMPORTANT INFORMATION: All symmetrisations will be switched off!
NOSYMM: (Re-)initialisation of all symmetry stuff for point group C_1.

 
 
 KPOINTS: simple                                  

Automatic generation of k-mesh.
Space group operators:
 irot       det(A)        alpha          n_x          n_y          n_z        tau_x        tau_y        tau_z
    1     1.000000     0.000000     1.000000     0.000000     0.000000     0.000000     0.000000     0.000000
 
 Subroutine IBZKPT returns following result:
 ===========================================
 
 Found      1 irreducible k-points:
 
 Following reciprocal coordinates:
            Coordinates               Weight
  0.000000  0.000000  0.000000      1.000000
 
 Following cartesian coordinates:
            Coordinates               Weight
  0.000000  0.000000  0.000000      1.000000
 


--------------------------------------------------------------------------------------------------------




 Dimension of arrays:
   k-points           NKPTS =      1   k-points in BZ     NKDIM =      1   number of bands    NBANDS=    304
   number of dos      NEDOS =    301   number of ions     NIONS =    100
   non local maximal  LDIM  =      4   non local SUM 2l+1 LMDIM =      8
   total plane-waves  NPLWV =  64000
   max r-space proj   IRMAX =   1017   max aug-charges    IRDMAX=   2209
   dimension x,y,z NGX =    40 NGY =   40 NGZ =   40
   dimension x,y,z NGXF=    80 NGYF=   80 NGZF=   80
   support grid    NGXF=    80 NGYF=   80 NGZF=   80
   ions per type =             100
   NGX,Y,Z   is equivalent  to a cutoff of   6.51,  6.51,  6.51 a.u.
   NGXF,Y,Z  is equivalent  to a cutoff of  13.02, 13.02, 13.02 a.u.

 SYSTEM =  unknown system                          
 POSCAR =  Si                                      

 Startparameter for this run:
   NWRITE =      2    write-flag & timer
   PREC   = normal    normal or accurate (medium, high low for compatibility)
   ISTART =      0    job   : 0-new  1-cont  2-samecut
   ICHARG =      2    charge: 1-file 2-atom 10-const
   ISPIN  =      2    spin polarized calculation?
   LNONCOLLINEAR =      F non collinear calculations
   LSORBIT =      F    spin-orbit coupling
   INIWAV =      1    electr: 0-lowe 1-rand  2-diag
   LASPH  =      F    aspherical Exc in radial PAW
   METAGGA=      F    non-selfconsistent MetaGGA calc.

 Electronic Relaxation 1
   ENCUT  =  245.3 eV  18.03 Ry    4.25 a.u.  13.04 13.04 13.04*2*pi/ulx,y,z
   ENINI  =  245.3     initial cutoff
   ENAUG  =  322.1 eV  augmentation charge cutoff
   NELM   =     60;   NELMIN=  4; NELMDL=-12     # of ELM steps 
   EDIFF  = 0.1E-04   stopping-criterion for ELM
   LREAL  =      T    real-space projection
   NLSPLINE    = F    spline interpolate recip. space projectors
   LCOMPAT=      F    compatible to vasp.4.4
   GGA_COMPAT  = T    GGA compatible to vasp.4.4-vasp.4.6
   LMAXPAW     = -100 max onsite density
   LMAXMIX     =    2 max onsite mixed and CHGCAR
   VOSKOWN=      0    Vosko Wilk Nusair interpolation
   ROPT   =   -0.00050
 Ionic relaxation
   EDIFFG = 0.1E-03   stopping-criterion for IOM
   NSW    =      0    number of steps for IOM
   NBLOCK =      1;   KBLOCK =      1    inner block; outer block 
   IBRION =     -1    ionic relax: 0-MD 1-quasi-New 2-CG
   NFREE  =      0    steps in history (QN), initial steepest desc. (CG)
   ISIF   =      2    stress and relaxation
   IWAVPR =     10    prediction:  0-non 1-charg 2-wave 3-comb
   ISYM   =      0    0-nonsym 1-usesym 2-fastsym
   LCORR  =      T    Harris-Foulkes like correction to forces

   POTIM  = 0.5000    time-step for ionic-motion
   TEIN   =    0.0    initial temperature
   TEBEG  =    0.0;   TEEND  =   0.0 temperature during run
   SMASS  =  -3.00    Nose mass-parameter (am)
   estimated Nose-frequenzy (Omega)   =  0.10E-29 period in steps =****** mass=  -0.238E-26a.u.
   SCALEE = 1.0000    scale energy and forces
   NPACO  =    256;   APACO  = 16.0  distance and # of slots for P.C.
   PSTRESS=    0.0 pullay stress

  Mass of Ions in am
   POMASS =  28.09
  Ionic Valenz
   ZVAL   =   4.00
  Atomic Wigner-Seitz radii
   RWIGS  =  -1.00
  virtual crystal weights 
   VCA    =   1.00
   NELECT =     400.0000    total number of electrons
   NUPDOWN=      -1.0000    fix difference up-down

 DOS related values:
   EMIN   =  10.00;   EMAX   =-10.00  energy-range for DOS
   EFERMI =   0.00
   ISMEAR =     0;   SIGMA  =   0.05  broadening in eV -4-tet -1-fermi 0-gaus

 Electronic relaxation 2 (details)
   IALGO  =     48    algorithm
   LDIAG  =      T    sub-space diagonalisation (order eigenvalues)
   LSUBROT=      F    optimize rotation matrix (better conditioning)
   TURBO    =      0    0=normal 1=particle mesh
   IRESTART =      0    0=no restart 2=restart with 2 vectors
   NREBOOT  =      0    no. of reboots
   NMIN     =      0    reboot dimension
   EREF     =   0.00    reference energy to select bands
   IMIX   =      4    mixing-type and parameters
     AMIX     =   0.40;   BMIX     =  1.00
     AMIX_MAG =   1.60;   BMIX_MAG =  1.00
     AMIN     =   0.10
     WC   =   100.;   INIMIX=   1;  MIXPRE=   1;  MAXMIX= -45

 Intra band minimization:
   WEIMIN = 0.0000     energy-eigenvalue tresh-hold
   EBREAK =  0.82E-08  absolut break condition
   DEPER  =   0.30     relativ break condition  

   TIME   =   0.40     timestep for ELM

  volume/ion in A,a.u.               =      10.65        71.86
  Fermi-wavevector in a.u.,A,eV,Ry     =   1.181242  2.232223 18.984649  1.395332
  Thomas-Fermi vector in A             =   2.317519
 
 Write flags
   LWAVE        =      F    write WAVECAR
   LDOWNSAMPLE  =      F    k-point downsampling of WAVECAR
   LCHARG       =      F    write CHGCAR
   LVTOT        =      F    write LOCPOT, total local potential
   LVHAR        =      F    write LOCPOT, Hartree potential only
   LELF         =      F    write electronic localiz. function (ELF)
   LORBIT       =      0    0 simple, 1 ext, 2 COOP (PROOUT), +10 PAW based schemes


 Dipole corrections
   LMONO  =      F    monopole corrections only (constant potential shift)
   LDIPOL =      F    correct potential (dipole corrections)
   IDIPOL =      0    1-x, 2-y, 3-z, 4-all directions 
   EPSILON=  1.0000000 bulk dielectric constant

 Exchange correlation treatment:
   GGA     =    --    GGA type
   LEXCH   =     8    internal setting for exchange type
   VOSKOWN=      0    Vosko Wilk Nusair interpolation
   LHFCALC =     F    Hartree Fock is set to
   LHFONE  =     F    Hartree Fock one center treatment
   AEXX    =    0.0000 exact exchange contribution

 Linear response parameters
   LEPSILON=     F    determine dielectric tensor
   LRPA    =     F    only Hartree local field effects (RPA)
   LNABLA  =     F    use nabla operator in PAW spheres
   LVEL    =     F    velocity operator in full k-point grid
   LINTERFAST=   F  fast interpolation
   KINTER  =     0    interpolate to denser k-point grid
   CSHIFT  =0.1000    complex shift for real part using Kramers Kronig
   OMEGAMAX=  -1.0    maximum frequency
   DEG_THRESHOLD= 0.2000000E-02 threshold for treating states as degnerate
   RTIME   =   -0.100 relaxation time in fs
  (WPLASMAI=    0.000 imaginary part of plasma frequency in eV, 0.658/RTIME)
   DFIELD  = 0.0000000 0.0000000 0.0000000 field for delta impulse in time
 
 Orbital magnetization related:
   ORBITALMAG=     F  switch on orbital magnetization
   LCHIMAG   =     F  perturbation theory with respect to B field
   DQ        =  0.001000  dq finite difference perturbation B field
   LLRAUG    =     F  two centre corrections for induced B field



--------------------------------------------------------------------------------------------------------


 Static calculation
 charge density and potential will be updated during run
 spin polarized calculation
 RMM-DIIS sequential band-by-band
 perform sub-space diagonalisation
    before iterative eigenvector-optimisation
 modified Broyden-mixing scheme, WC =      100.0
 initial mixing is a Kerker type mixing with AMIX =  0.4000 and BMIX =      1.0000
 Hartree-type preconditioning will be used
 using additional bands          104
 real space projection scheme for non local part
 use partial core corrections
 calculate Harris-corrections to forces 
   (improved forces if not selfconsistent)
 use gradient corrections 
 use of overlap-Matrix (Vanderbilt PP)
 Gauss-broadening in eV      SIGMA  =   0.05


--------------------------------------------------------------------------------------------------------


  energy-cutoff  :      245.34
  volume of cell :     1064.80
      direct lattice vectors                 reciprocal lattice vectors
    10.211495000  0.000000000  0.000000000     0.097928854  0.000000000  0.000000000
     0.000000000 10.211495000  0.000000000     0.000000000  0.097928854  0.000000000
     0.000000000  0.000000000 10.211495000     0.000000000  0.000000000  0.097928854

  length of vectors
    10.211495000 10.211495000 10.211495000     0.097928854  0.097928854  0.097928854


 
 k-points in units of 2pi/SCALE and weight: simple                                  
   0.00000000  0.00000000  0.00000000       1.000
 
 k-points in reciprocal lattice and weights: simple                                  
   0.00000000  0.00000000  0.00000000       1.000
 
 position of ions in fractional coordinates (direct lattice) 
   0.09956320  0.09036540  0.04363480
   0.14503400  0.75642400  0.57567500
   0.59455600  0.70150000  0.87317000
   0.08255530  0.47795800  0.23636100
   0.30378800  0.23244800  0.38855200
   0.44581900  0.42139500  0.36578700
   0.69340900  0.37472600  0.37614900
   0.84859900  0.31242400  0.99179100
   0.83251600  0.28907400  0.20865800
   0.77599100  0.57407900  0.45213000
   0.80662100  0.72124100  0.30570600
   0.53922700  0.22354100  0.46077000
   0.86277600  0.00829000  0.43251500
   0.65495500  0.00545000  0.09994740
   0.77415500  0.67185600  0.09338560
   0.15773600  0.89041100  0.15680300
   0.15676200  0.92238200  0.86147200
   0.68433200  0.06391040  0.85077100
   0.98261600  0.51619500  0.04532470
   0.69355900  0.14520800  0.30558200
   0.02045000  0.71477000  0.17689500
   0.69105200  0.55485000  0.68207000
   0.87961400  0.80917500  0.53247100
   0.12387200  0.46545900  0.89821800
   0.58602200  0.88590600  0.72873100
   0.59061000  0.80737200  0.18279700
   0.50108600  0.79163800  0.41066200
   0.74165600  0.86327300  0.96434500
   0.50779600  0.14452000  0.94568100
   0.47242200  0.67500800  0.69071500
   0.96921500  0.09390070  0.23748800
   0.52925900  0.87294100  0.96110500
   0.27036500  0.87943200  0.43454300
   0.66874000  0.93223100  0.32683400
   0.32418500  0.12292200  0.58847400
   0.57216800  0.32913000  0.64585800
   0.13142400  0.53303100  0.57327000
   0.86358300  0.48759200  0.82511000
   0.38474800  0.64878800  0.91605100
   0.25745000  0.12742600  0.21206700
   0.04205830  0.30115900  0.10910300
   0.30566700  0.53571100  0.73663600
   0.67240700  0.76046300  0.53578700
   0.68016600  0.49789200  0.94406700
   0.20602800  0.66027600  0.29730900
   0.48688400  0.22548500  0.21445400
   0.35565600  0.79693900  0.23540700
   0.06380340  0.62705400  0.76601500
   0.39378900  0.57468200  0.23499200
   0.95854300  0.43630200  0.45848700
   0.99975600  0.37497100  0.67552500
   0.34320600  0.64915800  0.49597000
   0.03043220  0.25747700  0.88805400
   0.29127800  0.07017640  0.99982744
   0.50949400  0.10162100  0.69047800
   0.13763700  0.25687900  0.54291300
   0.66507700  0.23266800  0.07552510
   0.00536000  0.64064900  0.41076500
   0.13707700  0.96990900  0.61475900
   0.75547000  0.75326700  0.74491900
   0.64040800  0.29261500  0.85003300
   0.89807500  0.69178300  0.90653000
   0.36020400  0.99275500  0.81579500
   0.15675200  0.07705730  0.40704300
   0.44253500  0.01142510  0.15104800
   0.19125800  0.34393400  0.74665100
   0.28580300  0.78232700  0.76968500
   0.05387320  0.28771500  0.33939200
   0.59037600  0.97617900  0.52590800
   0.33767200  0.83869100  0.02469000
   0.98729420  0.10963800  0.60131000
   0.54419500  0.60699900  0.07713420
   0.49955500  0.46922400  0.81005600
   0.86697500  0.23295600  0.41867200
   0.86258900  0.08963570  0.04229220
   0.22850300  0.45708900  0.40521700
   0.98743100  0.82840300  0.72170100
   0.39530300  0.25986400  0.79588500
   0.77770300  0.38772100  0.58252500
   0.43554500  0.39998000  0.01658420
   0.26880900  0.27989400  0.98075500
   0.94847000  0.06836140  0.83883400
   0.89771000  0.61459500  0.62629300
   0.71276300  0.15639500  0.57232000
   0.97786080  0.88560100  0.99007700
   0.86096200  0.91270900  0.19758700
   0.82546500  0.97632700  0.69388000
   0.14793500  0.72528900  0.96837000
   0.37416500  0.36403800  0.58844700
   0.16691300  0.12971600  0.74599200
   0.51549500  0.52720400  0.54226300
   0.05218000  0.88227400  0.35366100
   0.27390500  0.36330500  0.20671700
   0.39763600  0.90314900  0.61795900
   0.59038000  0.43143400  0.18716200
   0.45530000  0.02760550  0.37304100
   0.83027800  0.26773500  0.77448200
   0.60433600  0.61533100  0.32088000
   0.85587500  0.52025500  0.22736200
   0.24143300  0.55180900  0.05721010
 
 position of ions in cartesian coordinates  (Angst):
   1.01668912  0.92276583  0.44557654
   1.48101397  7.72421989  5.87850238
   6.07130562  7.16336374  8.91637109
   0.84301303  4.88066573  2.41359917
   3.10212964  2.37364159  3.96769681
   4.55247849  4.30307294  3.73523212
   7.08074254  3.82651268  3.84104363
   8.66546445  3.19031611 10.12766884
   8.50123297  2.95187771  2.13071012
   7.92402822  5.86220484  4.61692323
   8.23680631  7.36494887  3.12171529
   5.50631381  2.28268780  4.70515055
   8.81023281  0.08465329  4.41662476
   6.68806971  0.05565265  1.02061238
   7.90527991  6.86065418  0.95360659
   1.61072038  9.09242747  1.60119305
   1.60077438  9.41889918  8.79691702
   6.98805280  0.65262073  8.68764381
  10.03397837  5.27112266  0.46283295
   7.08227426  1.48279077  3.12044907
   0.20882507  7.29887028  1.80636241
   7.05667404  5.66584800  6.96495439
   8.98217396  8.26288647  5.43732495
   1.26491831  4.75303225  9.17214862
   5.98416072  9.04642469  7.44143296
   6.03101106  8.24447514  1.86663065
   5.11683718  8.08380748  4.19347296
   7.57341654  8.81530792  9.84740415
   5.18535632  1.47576526  9.65681680
   4.82413489  6.89284082  7.05323277
   9.89713413  0.95886653  2.42510752
   5.40452563  8.91403266  9.81431890
   2.76083085  8.98031547  4.43733367
   6.82883517  9.51947220  3.33746376
   3.31041351  1.25521739  6.00919931
   5.84269067  3.36090935  6.59517574
   1.34203552  5.44304339  5.85394374
   8.81847349  4.97904327  8.42560664
   3.92885228  6.62509542  9.35425021
   2.62894939  1.30120996  2.16552111
   0.42947812  3.07528362  1.11410474
   3.12131704  5.47041020  7.52215483
   6.86628072  7.76546412  5.47118627
   6.94551171  5.08422167  9.64033545
   2.10385389  6.74240507  3.03596937
   4.97181353  2.30253895  2.18989595
   3.63177947  8.13793861  2.40385740
   0.65152810  6.40315879  7.82215834
   4.02117440  5.86836237  2.39961963
   9.78815705  4.45529569  4.68183771
  10.20900340  3.82901449  6.89812016
   3.50464635  6.62887367  5.06459518
   0.31075826  2.62922510  9.06835898
   2.97438384  0.71660596 10.20973292
   5.20269543  1.03770233  7.05081264
   1.40547954  2.62311862  5.54395338
   6.79143046  2.37588812  0.77122418
   0.05473361  6.54198406  4.19452474
   1.39976110  9.90422090  6.27760845
   7.71447813  7.69198220  7.60673664
   6.53952309  2.98803661  8.68010773
   9.17068837  7.06413865  9.25702656
   3.67822134 10.13751272  8.33048656
   1.60067226  0.78687023  4.15651756
   4.51894394  0.11666735  1.54242590
   1.95303011  3.51208032  7.62442295
   2.91847591  7.98872825  7.85963453
   0.55012591  2.93800028  3.46569971
   6.02862157  9.96824698  5.37030691
   3.44813594  8.56428895  0.25212181
  10.08174979  1.11956789  6.14027406
   5.55704452  6.19836725  0.78765550
   5.10120338  4.79147853  8.27188279
   8.85311088  2.37882903  4.27526703
   8.80832326  0.91531450  0.43186659
   2.33335724  4.66756204  4.13787137
  10.08314672  8.45923309  7.36964615
   4.03663461  2.65359994  8.12717570
   7.94151030  3.95921105  5.94845112
   4.44756559  4.08439377  0.16934948
   2.74494176  2.85813618 10.01497478
   9.68529666  0.69807209  8.56574920
   9.16696118  6.27593377  6.39538784
   7.27837581  1.59702676  5.84424282
   9.98542067  9.04331018 10.11016634
   8.79170916  9.32012339  2.01765866
   8.42923172  9.96975828  7.08555215
   1.51063751  7.40628500  9.88850541
   3.82078403  3.71737222  6.00892360
   1.70443126  1.32459429  7.61769358
   5.26397462  5.38354101  5.53731591
   0.53283581  9.00933654  3.61140753
   2.79697954  3.70988719  2.11088961
   4.06045803  9.22250150  6.31028524
   6.02866242  4.40558613  1.91120383
   4.64929367  0.28189343  3.80930631
   8.47837965  2.73397461  7.90861907
   6.17117404  6.28344943  3.27666452
   8.73976328  5.31258133  2.32170593
   2.46539187  5.63479484  0.58420065
 


--------------------------------------------------------------------------------------------------------


 k-point  1 :   0.0000 0.0000 0.0000  plane waves:    9315

 maximum and minimum number of plane-waves per node :      9315     9315

 maximum number of plane-waves:      9315
 maximum index in each direction: 
   IXMAX=   13   IYMAX=   13   IZMAX=   13
   IXMIN=  -13   IYMIN=  -13   IZMIN=  -13


 serial   3D FFT for wavefunctions
 parallel 3D FFT for charge:
    minimum data exchange during FFTs selected (reduces bandwidth)


 total amount of memory used by VASP MPI-rank0    53945. kBytes
=======================================================================

   base      :      30000. kBytes
   nonlr-proj:       8277. kBytes
   fftplans  :       1377. kBytes
   grid      :       7520. kBytes
   one-center:        614. kBytes
   wavefun   :       6157. kBytes
 
     INWAV:  cpu time    0.0000: real time    0.0000
 Broyden mixing: mesh for mixing (old mesh)
   NGX = 27   NGY = 27   NGZ = 27
  (NGX  = 80   NGY  = 80   NGZ  = 80)
  gives a total of  19683 points

 initial charge density was supplied:
 charge density of overlapping atoms calculated
 number of electron     400.0000000 magnetization     100.0000000
 keeping initial charge density in first step


--------------------------------------------------------------------------------------------------------


 Maximum index for non-local projection operator          952
 Maximum index for augmentation-charges          190 (set IRDMAX)


--------------------------------------------------------------------------------------------------------


 First call to EWALD:  gamma=   0.174
 Maximum number of real-space cells 3x 3x 3
 Maximum number of reciprocal cells 3x 3x 3

    FEWALD:  cpu time    0.0076: real time    0.0077


--------------------------------------- Iteration      1(   1)  ---------------------------------------


    POTLOK:  cpu time    0.0553: real time    0.0954
    SETDIJ:  cpu time    0.0345: real time    0.0346
    EDDIAG:  cpu time    0.3458: real time    0.3477
  RMM-DIIS:  cpu time    0.4395: real time    0.4448
    ORTHCH:  cpu time    0.0971: real time    0.0977
       DOS:  cpu time    0.0004: real time    0.0004
    --------------------------------------------
      LOOP:  cpu time    0.9727: real time    1.0206

 eigenvalue-minimisations  :   608
 total energy-change (2. order) : 0.1390962E+04  (-0.7474070E+04)
 number of electron     400.0000000 magnetization     100.0000000
 augmentation part      400.0000000 magnetization     100.0000000

 Free energy of the ion-electron system (eV)
  ---------------------------------------------------
  alpha Z        PSCENC =       316.14514549
  Ewald energy   TEWEN  =    -14913.61512562
  -Hartree energ DENC   =       -94.90652691
  -exchange      EXHF   =         0.00000000
  -V(xc)+E(xc)   XCENC  =      -777.38771485
  PAW double counting   =      8803.41707833    -7043.47671478
  entropy T*S    EENTRO =        -0.06017436
  eigenvalues    EBANDS =      4794.71724500
  atomic energy  EATOM  =     10306.12861560
  Solvation  Ediel_sol  =         0.00000000
  ---------------------------------------------------
  free energy    TOTEN  =      1390.96182789 eV

  energy without entropy =     1391.02200226  energy(sigma->0) =     1390.99191507


--------------------------------------------------------------------------------------------------------




--------------------------------------- Iteration      1(   2)  ---------------------------------------


    EDDIAG:  cpu time    0.3396: real time    0.3417
  RMM-DIIS:  cpu time    0.4379: real time    0.4430
    ORTHCH:  cpu time    0.0968: real time    0.0974
       DOS:  cpu time    0.0003: real time    0.0003
    --------------------------------------------
      LOOP:  cpu time    0.8746: real time    0.8824

 eigenvalue-minimisations  :   608
 total energy-change (2. order) :-0.1376816E+04  (-0.1320501E+04)
 number of electron     400.0000000 magnetization     100.0000000
 augmentation part      400.0000000 magnetization     100.0000000

 Free energy of the ion-electron system (eV)
  ---------------------------------------------------
  alpha Z        PSCENC =       316.14514549
  Ewald energy   TEWEN  =    -14913.61512562
  -Hartree energ DENC   =       -94.90652691
  -exchange      EXHF   =         0.00000000
  -V(xc)+E(xc)   XCENC  =      -777.38771485
  PAW double counting   =      8803.41707833    -7043.47671478
  entropy T*S    EENTRO =        -0.04366607
  eigenvalues    EBANDS =      3417.88435231
  atomic energy  EATOM  =     10306.12861560
  Solvation  Ediel_sol  =         0.00000000
  ---------------------------------------------------
  free energy    TOTEN  =        14.14544350 eV

  energy without entropy =       14.18910957  energy(sigma->0) =       14.16727654


--------------------------------------------------------------------------------------------------------




--------------------------------------- Iteration      1(   3)  ---------------------------------------


    EDDIAG:  cpu time    0.3377: real time    0.3398
  RMM-DIIS:  cpu time    0.4483: real time    0.4536
    ORTHCH:  cpu time    0.0964: real time    0.0970
       DOS:  cpu time    0.0003: real time    0.0003
    --------------------------------------------
      LOOP:  cpu time    0.8828: real time    0.8907

 eigenvalue-minimisations  :   608
 total energy-change (2. order) :-0.2879636E+03  (-0.2798815E+03)
 number of electron     400.0000000 magnetization     100.0000000
 augmentation part      400.0000000 magnetization     100.0000000

 Free energy of the ion-electron system (eV)
  ---------------------------------------------------
  alpha Z        PSCENC =       316.14514549
  Ewald energy   TEWEN  =    -14913.61512562
  -Hartree energ DENC   =       -94.90652691
  -exchange      EXHF   =         0.00000000
  -V(xc)+E(xc)   XCENC  =      -777.38771485
  PAW double counting   =      8803.41707833    -7043.47671478
  entropy T*S    EENTRO =        -0.05238947
  eigenvalues    EBANDS =      3129.92952215
  atomic energy  EATOM  =     10306.12861560
  Solvation  Ediel_sol  =         0.00000000
  ---------------------------------------------------
  free energy    TOTEN  =      -273.81811006 eV

  energy without entropy =     -273.76572059  energy(sigma->0) =     -273.79191533


--------------------------------------------------------------------------------------------------------




--------------------------------------- Iteration      1(   4)  ---------------------------------------


    EDDIAG:  cpu time    0.3375: real time    0.3396
  RMM-DIIS:  cpu time    0.4406: real time    0.4457
    ORTHCH:  cpu time    0.0978: real time    0.0984
       DOS:  cpu time    0.0003: real time    0.0003
    --------------------------------------------
      LOOP:  cpu time    0.8763: real time    0.8841

 eigenvalue-minimisations  :   608
 total energy-change (2. order) :-0.8079673E+02  (-0.6757757E+02)
 number of electron     400.0000000 magnetization     100.0000000
 augmentation part      400.0000000 magnetization     100.0000000

 Free energy of the ion-electron system (eV)
  ---------------------------------------------------
  alpha Z        PSCENC =       316.14514549
  Ewald energy   TEWEN  =    -14913.61512562
  -Hartree energ DENC   =       -94.90652691
  -exchange      EXHF   =         0.00000000
  -V(xc)+E(xc)   XCENC  =      -777.38771485
  PAW double counting   =      8803.41707833    -7043.47671478
  entropy T*S    EENTRO =        -0.06380411
  eigenvalues    EBANDS =      3049.14420974
  atomic energy  EATOM  =     10306.12861560
  Solvation  Ediel_sol  =         0.00000000
  ---------------------------------------------------
  free energy    TOTEN  =      -354.61483711 eV

  energy without entropy =     -354.55103300  energy(sigma->0) =     -354.58293506


--------------------------------------------------------------------------------------------------------




--------------------------------------- Iteration      1(   5)  ---------------------------------------


    EDDIAG:  cpu time    0.3377: real time    0.3397
  RMM-DIIS:  cpu time    0.4384: real time    0.4435
    ORTHCH:  cpu time    0.0968: real time    0.0974
       DOS:  cpu time    0.0003: real time    0.0003
    --------------------------------------------
      LOOP:  cpu time    0.8732: real time    0.8810

 eigenvalue-minimisations  :   608
 total energy-change (2. order) :-0.2643599E+02  (-0.2136427E+02)
 number of electron     400.0000000 magnetization     100.0000000
 augmentation part      400.0000000 magnetization     100.0000000

 Free energy of the ion-electron system (eV)
  ---------------------------------------------------
  alpha Z        PSCENC =       316.14514549
  Ewald energy   TEWEN  =    -14913.61512562
  -Hartree energ DENC   =       -94.90652691
  -exchange      EXHF   =         0.00000000
  -V(xc)+E(xc)   XCENC  =      -777.38771485
  PAW double counting   =      8803.41707833    -7043.47671478
  entropy T*S    EENTRO =        -0.03657203
  eigenvalues    EBANDS =      3022.68098541
  atomic energy  EATOM  =     10306.12861560
  Solvation  Ediel_sol  =         0.00000000
  ---------------------------------------------------
  free energy    TOTEN  =      -381.05082936 eV

  energy without entropy =     -381.01425733  energy(sigma->0) =     -381.03254335


--------------------------------------------------------------------------------------------------------




--------------------------------------- Iteration      1(   6)  ---------------------------------------


    EDDIAG:  cpu time    0.3376: real time    0.3396
  RMM-DIIS:  cpu time    0.4432: real time    0.4483
    ORTHCH:  cpu time    0.0972: real time    0.0978
       DOS:  cpu time    0.0003: real time    0.0003
    --------------------------------------------
      LOOP:  cpu time    0.8784: real time    0.8861

 eigenvalue-minimisations  :   608
 total energy-change (2. order) :-0.9594334E+01  (-0.7389138E+01)
 number of electron     400.0000000 magnetization     100.0000000
 augmentation part      400.0000000 magnetization     100.0000000

 Free energy of the ion-electron system (eV)
  ---------------------------------------------------
  alpha Z        PSCENC =       316.14514549
  Ewald energy   TEWEN  =    -14913.61512562
  -Hartree energ DENC   =       -94.90652691
  -exchange      EXHF   =         0.00000000
  -V(xc)+E(xc)   XCENC  =      -777.38771485
  PAW double counting   =      8803.41707833    -7043.47671478
  entropy T*S    EENTRO =        -0.02079194
  eigenvalues    EBANDS =      3013.07087096
  atomic energy  EATOM  =     10306.12861560
  Solvation  Ediel_sol  =         0.00000000
  ---------------------------------------------------
  free energy    TOTEN  =      -390.64516372 eV

  energy without entropy =     -390.62437178  energy(sigma->0) =     -390.63476775


--------------------------------------------------------------------------------------------------------




--------------------------------------- Iteration      1(   7)  ---------------------------------------


    EDDIAG:  cpu time    0.3375: real time    0.3396
  RMM-DIIS:  cpu time    0.4418: real time    0.4470
    ORTHCH:  cpu time    0.0970: real time    0.0976
       DOS:  cpu time    0.0003: real time    0.0003
    --------------------------------------------
      LOOP:  cpu time    0.8766: real time    0.8845

 eigenvalue-minimisations  :   608
 total energy-change (2. order) :-0.3439697E+01  (-0.2826709E+01)
 number of electron     400.0000000 magnetization     100.0000000
 augmentation part      400.0000000 magnetization     100.0000000

 Free energy of the ion-electron system (eV)
  ---------------------------------------------------
  alpha Z        PSCENC =       316.14514549
  Ewald energy   TEWEN  =    -14913.61512562
  -Hartree energ DENC   =       -94.90652691
  -exchange      EXHF   =         0.00000000
  -V(xc)+E(xc)   XCENC  =      -777.38771485
  PAW double counting   =      8803.41707833    -7043.47671478
  entropy T*S    EENTRO =        -0.02735110
  eigenvalues    EBANDS =      3009.63773325
  atomic energy  EATOM  =     10306.12861560
  Solvation  Ediel_sol  =         0.00000000
  ---------------------------------------------------
  free energy    TOTEN  =      -394.08486060 eV

  energy without entropy =     -394.05750949  energy(sigma->0) =     -394.07118504


--------------------------------------------------------------------------------------------------------




--------------------------------------- Iteration      1(   8)  ---------------------------------------


    EDDIAG:  cpu time    0.3371: real time    0.3391
  RMM-DIIS:  cpu time    0.4460: real time    0.4510
    ORTHCH:  cpu time    0.0973: real time    0.0980
       DOS:  cpu time    0.0003: real time    0.0003
    --------------------------------------------
      LOOP:  cpu time    0.8807: real time    0.8884

 eigenvalue-minimisations  :   608
 total energy-change (2. order) :-0.1363989E+01  (-0.1112134E+01)
 number of electron     400.0000000 magnetization     100.0000000
 augmentation part      400.0000000 magnetization     100.0000000

 Free energy of the ion-electron system (eV)
  ---------------------------------------------------
  alpha Z        PSCENC =       316.14514549
  Ewald energy   TEWEN  =    -14913.61512562
  -Hartree energ DENC   =       -94.90652691
  -exchange      EXHF   =         0.00000000
  -V(xc)+E(xc)   XCENC  =      -777.38771485
  PAW double counting   =      8803.41707833    -7043.47671478
  entropy T*S    EENTRO =        -0.03870226
  eigenvalues    EBANDS =      3008.28509591
  atomic energy  EATOM  =     10306.12861560
  Solvation  Ediel_sol  =         0.00000000
  ---------------------------------------------------
  free energy    TOTEN  =      -395.44884910 eV

  energy without entropy =     -395.41014684  energy(sigma->0) =     -395.42949797


--------------------------------------------------------------------------------------------------------




--------------------------------------- Iteration      1(   9)  ---------------------------------------


    EDDIAG:  cpu time    0.3374: real time    0.3395
  RMM-DIIS:  cpu time    0.9859: real time    0.9979
    ORTHCH:  cpu time    0.0972: real time    0.0978
       DOS:  cpu time    0.0003: real time    0.0003
    --------------------------------------------
      LOOP:  cpu time    1.4208: real time    1.4355

 eigenvalue-minimisations  :  1503
 total energy-change (2. order) :-0.7719577E+00  (-0.7064442E+00)
 number of electron     400.0000000 magnetization     100.0000000
 augmentation part      400.0000000 magnetization     100.0000000

 Free energy of the ion-electron system (eV)
  ---------------------------------------------------
  alpha Z        PSCENC =       316.14514549
  Ewald energy   TEWEN  =    -14913.61512562
  -Hartree energ DENC   =       -94.90652691
  -exchange      EXHF   =         0.00000000
  -V(xc)+E(xc)   XCENC  =      -777.38771485
  PAW double counting   =      8803.41707833    -7043.47671478
  entropy T*S    EENTRO =        -0.04497560
  eigenvalues    EBANDS =      3007.51941151
  atomic energy  EATOM  =     10306.12861560
  Solvation  Ediel_sol  =         0.00000000
  ---------------------------------------------------
  free energy    TOTEN  =      -396.22080684 eV

  energy without entropy =     -396.17583124  energy(sigma->0) =     -396.19831904


--------------------------------------------------------------------------------------------------------




--------------------------------------- Iteration      1(  10)  ---------------------------------------


    EDDIAG:  cpu time    0.3376: real time    0.3399
  RMM-DIIS:  cpu time    0.9515: real time    0.9631
    ORTHCH:  cpu time    0.0970: real time    0.0976
       DOS:  cpu time    0.0003: real time    0.0003
    --------------------------------------------
      LOOP:  cpu time    1.3864: real time    1.4009

 eigenvalue-minimisations  :  1458
 total energy-change (2. order) :-0.9204556E-01  (-0.4844325E-01)
 number of electron     400.0000000 magnetization     100.0000000
 augmentation part      400.0000000 magnetization     100.0000000

 Free energy of the ion-electron system (eV)
  ---------------------------------------------------
  alpha Z        PSCENC =       316.14514549
  Ewald energy   TEWEN  =    -14913.61512562
  -Hartree energ DENC   =       -94.90652691
  -exchange      EXHF   =         0.00000000
  -V(xc)+E(xc)   XCENC  =      -777.38771485
  PAW double counting   =      8803.41707833    -7043.47671478
  entropy T*S    EENTRO =        -0.04549668
  eigenvalues    EBANDS =      3007.42788702
  atomic energy  EATOM  =     10306.12861560
  Solvation  Ediel_sol  =         0.00000000
  ---------------------------------------------------
  free energy    TOTEN  =      -396.31285240 eV

  energy without entropy =     -396.26735572  energy(sigma->0) =     -396.29010406


--------------------------------------------------------------------------------------------------------




--------------------------------------- Iteration      1(  11)  ---------------------------------------


    EDDIAG:  cpu time    0.3378: real time    0.3398
  RMM-DIIS:  cpu time    0.9019: real time    0.9127
    ORTHCH:  cpu time    0.0973: real time    0.0979
       DOS:  cpu time    0.0003: real time    0.0003
    --------------------------------------------
      LOOP:  cpu time    1.3373: real time    1.3507

 eigenvalue-minimisations  :  1359
 total energy-change (2. order) :-0.1886997E-02  (-0.1316631E-02)
 number of electron     400.0000000 magnetization     100.0000000
 augmentation part      400.0000000 magnetization     100.0000000

 Free energy of the ion-electron system (eV)
  ---------------------------------------------------
  alpha Z        PSCENC =       316.14514549
  Ewald energy   TEWEN  =    -14913.61512562
  -Hartree energ DENC   =       -94.90652691
  -exchange      EXHF   =         0.00000000
  -V(xc)+E(xc)   XCENC  =      -777.38771485
  PAW double counting   =      8803.41707833    -7043.47671478
  entropy T*S    EENTRO =        -0.04548425
  eigenvalues    EBANDS =      3007.42598759
  atomic energy  EATOM  =     10306.12861560
  Solvation  Ediel_sol  =         0.00000000
  ---------------------------------------------------
  free energy    TOTEN  =      -396.31473940 eV

  energy without entropy =     -396.26925515  energy(sigma->0) =     -396.29199727


--------------------------------------------------------------------------------------------------------




--------------------------------------- Iteration      1(  12)  ---------------------------------------


    EDDIAG:  cpu time    0.3372: real time    0.3391
  RMM-DIIS:  cpu time    0.7887: real time    0.7984
    ORTHCH:  cpu time    0.0970: real time    0.0977
       DOS:  cpu time    0.0003: real time    0.0003
    CHARGE:  cpu time    0.0446: real time    0.0448
    MIXING:  cpu time    0.0010: real time    0.0010
    --------------------------------------------
      LOOP:  cpu time    1.2689: real time    1.2814

 eigenvalue-minimisations  :  1098
 total energy-change (2. order) :-0.1307334E-04  (-0.1277023E-04)
 number of electron     400.0000015 magnetization      67.3399471
 augmentation part      -23.5555614 magnetization      40.9403961

 Broyden mixing:
  rms(total) = 0.62373E+01    rms(broyden)= 0.62373E+01
  rms(prec ) = 0.64301E+01
  weight for this iteration     100.00

 Free energy of the ion-electron system (eV)
  ---------------------------------------------------
  alpha Z        PSCENC =       316.14514549
  Ewald energy   TEWEN  =    -14913.61512562
  -Hartree energ DENC   =       -94.90652691
  -exchange      EXHF   =         0.00000000
  -V(xc)+E(xc)   XCENC  =      -777.38771485
  PAW double counting   =      8803.41707833    -7043.47671478
  entropy T*S    EENTRO =        -0.04548431
  eigenvalues    EBANDS =      3007.42597458
  atomic energy  EATOM  =     10306.12861560
  Solvation  Ediel_sol  =         0.00000000
  ---------------------------------------------------
  free energy    TOTEN  =      -396.31475247 eV

  energy without entropy =     -396.26926816  energy(sigma->0) =     -396.29201032


--------------------------------------------------------------------------------------------------------




--------------------------------------- Iteration      1(  13)  ---------------------------------------


    POTLOK:  cpu time    0.0527: real time    0.0530
    SETDIJ:  cpu time    0.0348: real time    0.0349
    EDDIAG:  cpu time    0.3370: real time    0.3389
  RMM-DIIS:  cpu time    0.8885: real time    0.8994
    ORTHCH:  cpu time    0.0988: real time    0.0995
       DOS:  cpu time    0.0004: real time    0.0004
    CHARGE:  cpu time    0.0447: real time    0.0448
    MIXING:  cpu time    0.0012: real time    0.0012
    --------------------------------------------
      LOOP:  cpu time    1.4581: real time    1.4721

 eigenvalue-minimisations  :  1342
 total energy-change (2. order) :-0.5191879E+01  (-0.1235841E+01)
 number of electron     400.0000013 magnetization      32.3755781
 augmentation part      -23.5978095 magnetization      12.7741938

 Broyden mixing:
  rms(total) = 0.37580E+01    rms(broyden)= 0.37580E+01
  rms(prec ) = 0.38437E+01
  weight for this iteration     100.00

 eigenvalues of (default mixing * dielectric matrix)
  average eigenvalue GAMMA=   1.2611
  1.2611

 Free energy of the ion-electron system (eV)
  ---------------------------------------------------
  alpha Z        PSCENC =       316.14514549
  Ewald energy   TEWEN  =    -14913.61512562
  -Hartree energ DENC   =      -116.87742221
  -exchange      EXHF   =         0.00000000
  -V(xc)+E(xc)   XCENC  =      -776.60767315
  PAW double counting   =     31316.36931123   -29562.97446863
  entropy T*S    EENTRO =        -0.04103805
  eigenvalues    EBANDS =      3029.96602378
  atomic energy  EATOM  =     10306.12861560
  Solvation  Ediel_sol  =         0.00000000
  ---------------------------------------------------
  free energy    TOTEN  =      -401.50663156 eV

  energy without entropy =     -401.46559351  energy(sigma->0) =     -401.48611253


--------------------------------------------------------------------------------------------------------




--------------------------------------- Iteration      1(  14)  ---------------------------------------


    POTLOK:  cpu time    0.0526: real time    0.0530
    SETDIJ:  cpu time    0.0348: real time    0.0349
    EDDIAG:  cpu time    0.3363: real time    0.3383
  RMM-DIIS:  cpu time    0.9033: real time    0.9142
    ORTHCH:  cpu time    0.0985: real time    0.0992
       DOS:  cpu time    0.0004: real time    0.0004
    CHARGE:  cpu time    0.0447: real time    0.0449
    MIXING:  cpu time    0.0013: real time    0.0013
    --------------------------------------------
      LOOP:  cpu time    1.4719: real time    1.4861

 eigenvalue-minimisations  :  1341
 total energy-change (2. order) :-0.7639567E+01  (-0.5883258E+00)
 number of electron     400.0000018 magnetization      13.9160059
 augmentation part      -23.7007204 magnetization       5.5251916

 Broyden mixing:
  rms(total) = 0.17675E+01    rms(broyden)= 0.17675E+01
  rms(prec ) = 0.20308E+01
  weight for this iteration     100.00

 eigenvalues of (default mixing * dielectric matrix)
  average eigenvalue GAMMA=   1.4810
  2.3789  0.5831

 Free energy of the ion-electron system (eV)
  ---------------------------------------------------
  alpha Z        PSCENC =       316.14514549
  Ewald energy   TEWEN  =    -14913.61512562
  -Hartree energ DENC   =      -127.89271740
  -exchange      EXHF   =         0.00000000
  -V(xc)+E(xc)   XCENC  =      -771.84064781
  PAW double counting   =     68947.53675170   -67199.90636854
  entropy T*S    EENTRO =        -0.05535055
  eigenvalues    EBANDS =      3034.35349844
  atomic energy  EATOM  =     10306.12861560
  Solvation  Ediel_sol  =         0.00000000
  ---------------------------------------------------
  free energy    TOTEN  =      -409.14619870 eV

  energy without entropy =     -409.09084815  energy(sigma->0) =     -409.11852342


--------------------------------------------------------------------------------------------------------




--------------------------------------- Iteration      1(  15)  ---------------------------------------


    POTLOK:  cpu time    0.0525: real time    0.0529
    SETDIJ:  cpu time    0.0348: real time    0.0349
    EDDIAG:  cpu time    0.3375: real time    0.3395
  RMM-DIIS:  cpu time    0.9103: real time    0.9215
    ORTHCH:  cpu time    0.0990: real time    0.0996
       DOS:  cpu time    0.0004: real time    0.0004
    CHARGE:  cpu time    0.0447: real time    0.0449
    MIXING:  cpu time    0.0014: real time    0.0014
    --------------------------------------------
      LOOP:  cpu time    1.4805: real time    1.4949

 eigenvalue-minimisations  :  1382
 total energy-change (2. order) :-0.6434336E+00  (-0.1349976E+00)
 number of electron     400.0000016 magnetization       9.8617274
 augmentation part      -23.7520972 magnetization       5.2411124

 Broyden mixing:
  rms(total) = 0.37225E+00    rms(broyden)= 0.37224E+00
  rms(prec ) = 0.45283E+00
  weight for this iteration     100.00

 eigenvalues of (default mixing * dielectric matrix)
  average eigenvalue GAMMA=   1.3067
  2.3962  0.9257  0.5980

 Free energy of the ion-electron system (eV)
  ---------------------------------------------------
  alpha Z        PSCENC =       316.14514549
  Ewald energy   TEWEN  =    -14913.61512562
  -Hartree energ DENC   =      -135.96333469
  -exchange      EXHF   =         0.00000000
  -V(xc)+E(xc)   XCENC  =      -769.13065862
  PAW double counting   =     89507.42041705   -87763.04630994
  entropy T*S    EENTRO =        -0.03977447
  eigenvalues    EBANDS =      3042.31139290
  atomic energy  EATOM  =     10306.12861560
  Solvation  Ediel_sol  =         0.00000000
  ---------------------------------------------------
  free energy    TOTEN  =      -409.78963231 eV

  energy without entropy =     -409.74985784  energy(sigma->0) =     -409.76974507


--------------------------------------------------------------------------------------------------------




--------------------------------------- Iteration      1(  16)  ---------------------------------------


    POTLOK:  cpu time    0.0526: real time    0.0529
    SETDIJ:  cpu time    0.0348: real time    0.0349
    EDDIAG:  cpu time    0.3354: real time    0.3373
  RMM-DIIS:  cpu time    0.9195: real time    0.9308
    ORTHCH:  cpu time    0.0989: real time    0.0996
       DOS:  cpu time    0.0003: real time    0.0003
    CHARGE:  cpu time    0.0447: real time    0.0449
    MIXING:  cpu time    0.0015: real time    0.0015
    --------------------------------------------
      LOOP:  cpu time    1.4877: real time    1.5022

 eigenvalue-minimisations  :  1402
 total energy-change (2. order) :-0.1506700E+00  (-0.3734369E-01)
 number of electron     400.0000016 magnetization       6.2150271
 augmentation part      -23.7644935 magnetization       2.4158925

 Broyden mixing:
  rms(total) = 0.24317E+00    rms(broyden)= 0.24317E+00
  rms(prec ) = 0.27382E+00
  weight for this iteration     100.00

 eigenvalues of (default mixing * dielectric matrix)
  average eigenvalue GAMMA=   1.3778
  2.3534  1.7663  0.7770  0.6144

 Free energy of the ion-electron system (eV)
  ---------------------------------------------------
  alpha Z        PSCENC =       316.14514549
  Ewald energy   TEWEN  =    -14913.61512562
  -Hartree energ DENC   =      -135.20837668
  -exchange      EXHF   =         0.00000000
  -V(xc)+E(xc)   XCENC  =      -768.96767499
  PAW double counting   =     89773.53455016   -88029.38738620
  entropy T*S    EENTRO =        -0.03379248
  eigenvalues    EBANDS =      3041.46374237
  atomic energy  EATOM  =     10306.12861560
  Solvation  Ediel_sol  =         0.00000000
  ---------------------------------------------------
  free energy    TOTEN  =      -409.94030235 eV

  energy without entropy =     -409.90650988  energy(sigma->0) =     -409.92340612


--------------------------------------------------------------------------------------------------------




--------------------------------------- Iteration      1(  17)  ---------------------------------------


    POTLOK:  cpu time    0.0525: real time    0.0528
    SETDIJ:  cpu time    0.0348: real time    0.0349
    EDDIAG:  cpu time    0.3359: real time    0.3378
  RMM-DIIS:  cpu time    0.9321: real time    0.9435
    ORTHCH:  cpu time    0.0985: real time    0.0992
       DOS:  cpu time    0.0004: real time    0.0004
    CHARGE:  cpu time    0.0447: real time    0.0449
    MIXING:  cpu time    0.0016: real time    0.0016
    --------------------------------------------
      LOOP:  cpu time    1.5005: real time    1.5151

 eigenvalue-minimisations  :  1428
 total energy-change (2. order) :-0.8982829E-01  (-0.1115526E-01)
 number of electron     400.0000015 magnetization       3.7730282
 augmentation part      -23.7731038 magnetization       0.7234240

 Broyden mixing:
  rms(total) = 0.12802E+00    rms(broyden)= 0.12802E+00
  rms(prec ) = 0.15120E+00
  weight for this iteration     100.00

 eigenvalues of (default mixing * dielectric matrix)
  average eigenvalue GAMMA=   1.3687
  2.3088  2.3088  0.9001  0.6125  0.7130

 Free energy of the ion-electron system (eV)
  ---------------------------------------------------
  alpha Z        PSCENC =       316.14514549
  Ewald energy   TEWEN  =    -14913.61512562
  -Hartree energ DENC   =      -134.39295747
  -exchange      EXHF   =         0.00000000
  -V(xc)+E(xc)   XCENC  =      -768.84045105
  PAW double counting   =     89171.32392969   -87427.31842774
  entropy T*S    EENTRO =        -0.04464301
  eigenvalues    EBANDS =      3040.58378347
  atomic energy  EATOM  =     10306.12861560
  Solvation  Ediel_sol  =         0.00000000
  ---------------------------------------------------
  free energy    TOTEN  =      -410.03013064 eV

  energy without entropy =     -409.98548764  energy(sigma->0) =     -410.00780914


--------------------------------------------------------------------------------------------------------




--------------------------------------- Iteration      1(  18)  ---------------------------------------


    POTLOK:  cpu time    0.0525: real time    0.0528
    SETDIJ:  cpu time    0.0348: real time    0.0349
    EDDIAG:  cpu time    0.3372: real time    0.3392
  RMM-DIIS:  cpu time    0.9357: real time    0.9470
    ORTHCH:  cpu time    0.0990: real time    0.0996
       DOS:  cpu time    0.0003: real time    0.0003
    CHARGE:  cpu time    0.0436: real time    0.0438
    MIXING:  cpu time    0.0017: real time    0.0017
    --------------------------------------------
      LOOP:  cpu time    1.5048: real time    1.5194

 eigenvalue-minimisations  :  1409
 total energy-change (2. order) :-0.3703800E-01  (-0.2912532E-02)
 number of electron     400.0000016 magnetization       2.4729393
 augmentation part      -23.7773114 magnetization       0.1308477

 Broyden mixing:
  rms(total) = 0.63196E-01    rms(broyden)= 0.63194E-01
  rms(prec ) = 0.73637E-01
  weight for this iteration     100.00

 eigenvalues of (default mixing * dielectric matrix)
  average eigenvalue GAMMA=   1.3781
  2.7412  2.3506  1.1376  0.8333  0.6030  0.6030

 Free energy of the ion-electron system (eV)
  ---------------------------------------------------
  alpha Z        PSCENC =       316.14514549
  Ewald energy   TEWEN  =    -14913.61512562
  -Hartree energ DENC   =      -134.10628411
  -exchange      EXHF   =         0.00000000
  -V(xc)+E(xc)   XCENC  =      -768.71446097
  PAW double counting   =     88799.87942501   -87055.98188644
  entropy T*S    EENTRO =        -0.05424389
  eigenvalues    EBANDS =      3040.25164629
  atomic energy  EATOM  =     10306.12861560
  Solvation  Ediel_sol  =         0.00000000
  ---------------------------------------------------
  free energy    TOTEN  =      -410.06716864 eV

  energy without entropy =     -410.01292475  energy(sigma->0) =     -410.04004670


--------------------------------------------------------------------------------------------------------




--------------------------------------- Iteration      1(  19)  ---------------------------------------


    POTLOK:  cpu time    0.0524: real time    0.0527
    SETDIJ:  cpu time    0.0348: real time    0.0349
    EDDIAG:  cpu time    0.3366: real time    0.3385
  RMM-DIIS:  cpu time    0.9380: real time    0.9494
    ORTHCH:  cpu time    0.0989: real time    0.0996
       DOS:  cpu time    0.0003: real time    0.0003
    CHARGE:  cpu time    0.0436: real time    0.0438
    MIXING:  cpu time    0.0019: real time    0.0019
    --------------------------------------------
      LOOP:  cpu time    1.5065: real time    1.5211

 eigenvalue-minimisations  :  1420
 total energy-change (2. order) :-0.8941238E-02  (-0.1132773E-02)
 number of electron     400.0000015 magnetization       1.6723745
 augmentation part      -23.7790773 magnetization      -0.1342650

 Broyden mixing:
  rms(total) = 0.31290E-01    rms(broyden)= 0.31288E-01
  rms(prec ) = 0.34731E-01
  weight for this iteration     100.00

 eigenvalues of (default mixing * dielectric matrix)
  average eigenvalue GAMMA=   1.3680
  3.0468  2.3519  1.2341  0.9657  0.8091  0.5578  0.6109

 Free energy of the ion-electron system (eV)
  ---------------------------------------------------
  alpha Z        PSCENC =       316.14514549
  Ewald energy   TEWEN  =    -14913.61512562
  -Hartree energ DENC   =      -134.38294534
  -exchange      EXHF   =         0.00000000
  -V(xc)+E(xc)   XCENC  =      -768.63008444
  PAW double counting   =     88668.84822062   -86925.01258029
  entropy T*S    EENTRO =        -0.06228223
  eigenvalues    EBANDS =      3040.50492634
  atomic energy  EATOM  =     10306.12861560
  Solvation  Ediel_sol  =         0.00000000
  ---------------------------------------------------
  free energy    TOTEN  =      -410.07610988 eV

  energy without entropy =     -410.01382765  energy(sigma->0) =     -410.04496877


--------------------------------------------------------------------------------------------------------




--------------------------------------- Iteration      1(  20)  ---------------------------------------


    POTLOK:  cpu time    0.0524: real time    0.0528
    SETDIJ:  cpu time    0.0348: real time    0.0349
    EDDIAG:  cpu time    0.3382: real time    0.3401
  RMM-DIIS:  cpu time    0.9323: real time    0.9442
    ORTHCH:  cpu time    0.0984: real time    0.0990
       DOS:  cpu time    0.0004: real time    0.0004
    CHARGE:  cpu time    0.0435: real time    0.0437
    MIXING:  cpu time    0.0020: real time    0.0020
    --------------------------------------------
      LOOP:  cpu time    1.5020: real time    1.5171

 eigenvalue-minimisations  :  1429
 total energy-change (2. order) :-0.3147568E-02  (-0.4797259E-03)
 number of electron     400.0000016 magnetization       1.3036436
 augmentation part      -23.7794684 magnetization      -0.0818997

 Broyden mixing:
  rms(total) = 0.15413E-01    rms(broyden)= 0.15410E-01
  rms(prec ) = 0.18379E-01
  weight for this iteration     100.00

 eigenvalues of (default mixing * dielectric matrix)
  average eigenvalue GAMMA=   1.3927
  3.4222  2.3039  1.5588  1.1853  0.8554  0.6613  0.6221  0.5323

 Free energy of the ion-electron system (eV)
  ---------------------------------------------------
  alpha Z        PSCENC =       316.14514549
  Ewald energy   TEWEN  =    -14913.61512562
  -Hartree energ DENC   =      -134.47327583
  -exchange      EXHF   =         0.00000000
  -V(xc)+E(xc)   XCENC  =      -768.60354781
  PAW double counting   =     88510.53664911   -86766.72104980
  entropy T*S    EENTRO =        -0.06958728
  eigenvalues    EBANDS =      3040.59291870
  atomic energy  EATOM  =     10306.12861560
  Solvation  Ediel_sol  =         0.00000000
  ---------------------------------------------------
  free energy    TOTEN  =      -410.07925745 eV

  energy without entropy =     -410.00967017  energy(sigma->0) =     -410.04446381


--------------------------------------------------------------------------------------------------------




--------------------------------------- Iteration      1(  21)  ---------------------------------------


    POTLOK:  cpu time    0.0525: real time    0.0528
    SETDIJ:  cpu time    0.0348: real time    0.0349
    EDDIAG:  cpu time    0.3383: real time    0.3403
  RMM-DIIS:  cpu time    0.9357: real time    0.9474
    ORTHCH:  cpu time    0.0988: real time    0.0994
       DOS:  cpu time    0.0003: real time    0.0003
    CHARGE:  cpu time    0.0435: real time    0.0437
    MIXING:  cpu time    0.0022: real time    0.0022
    --------------------------------------------
      LOOP:  cpu time    1.5061: real time    1.5210

 eigenvalue-minimisations  :  1431
 total energy-change (2. order) :-0.9617724E-03  (-0.1431368E-03)
 number of electron     400.0000016 magnetization       1.0597643
 augmentation part      -23.7796064 magnetization      -0.0743222

 Broyden mixing:
  rms(total) = 0.10212E-01    rms(broyden)= 0.10210E-01
  rms(prec ) = 0.11823E-01
  weight for this iteration     100.00

 eigenvalues of (default mixing * dielectric matrix)
  average eigenvalue GAMMA=   1.4379
  3.8919  2.1285  2.1285  1.2110  0.9718  0.8216  0.5308  0.6285  0.6285

 Free energy of the ion-electron system (eV)
  ---------------------------------------------------
  alpha Z        PSCENC =       316.14514549
  Ewald energy   TEWEN  =    -14913.61512562
  -Hartree energ DENC   =      -134.49127598
  -exchange      EXHF   =         0.00000000
  -V(xc)+E(xc)   XCENC  =      -768.60195427
  PAW double counting   =     88469.84468401   -86726.03147159
  entropy T*S    EENTRO =        -0.07304852
  eigenvalues    EBANDS =      3040.61421165
  atomic energy  EATOM  =     10306.12861560
  Solvation  Ediel_sol  =         0.00000000
  ---------------------------------------------------
  free energy    TOTEN  =      -410.08021922 eV

  energy without entropy =     -410.00717070  energy(sigma->0) =     -410.04369496


--------------------------------------------------------------------------------------------------------




--------------------------------------- Iteration      1(  22)  ---------------------------------------


    POTLOK:  cpu time    0.0524: real time    0.0527
    SETDIJ:  cpu time    0.0348: real time    0.0349
    EDDIAG:  cpu time    0.3388: real time    0.3407
  RMM-DIIS:  cpu time    0.9333: real time    0.9446
    ORTHCH:  cpu time    0.0991: real time    0.0997
       DOS:  cpu time    0.0004: real time    0.0004
    CHARGE:  cpu time    0.0436: real time    0.0438
    MIXING:  cpu time    0.0023: real time    0.0024
    --------------------------------------------
[...]
   0.314E+01 -.161E+02 0.119E+02   -.423E+01 0.147E+02 -.112E+02   0.199E+01 0.359E+01 -.143E+01   -.132E-03 0.306E-04 0.138E-03
   -.158E+02 0.118E+02 -.933E+01   0.142E+02 -.133E+02 0.682E+01   0.345E+01 0.203E+01 0.380E+01   0.283E-03 0.209E-03 -.344E-03
   0.962E+01 -.129E+02 -.181E+01   -.937E+01 0.973E+01 0.166E+01   -.104E+01 0.659E+01 -.150E+00   -.707E-04 0.292E-03 0.187E-03
   0.309E+01 -.835E+00 0.184E+02   -.336E+01 0.165E+01 -.170E+02   0.599E+00 -.427E+00 -.215E+01   0.832E-05 0.254E-03 -.494E-04
   -.148E+02 0.288E+01 -.327E+01   0.143E+02 -.245E+01 0.291E+01   0.244E+01 -.165E+00 0.124E+01   -.108E-03 0.271E-03 -.390E-03
   -.707E+00 0.874E+01 0.147E+02   0.152E+01 -.836E+01 -.120E+02   -.145E+01 -.367E+00 -.374E+01   -.131E-03 0.229E-03 0.145E-03
   -.126E+02 0.240E+01 -.427E+01   0.124E+02 -.241E+01 0.385E+01   0.241E+01 -.383E-01 0.126E+01   -.131E-03 -.259E-03 0.148E-03
   -.171E+02 -.775E+01 -.697E+01   0.162E+02 0.745E+01 0.564E+01   0.131E+01 0.124E+00 0.287E+01   0.756E-04 -.406E-03 0.669E-04
   -.274E+01 -.275E+00 -.175E+02   0.247E+00 0.180E+01 0.177E+02   0.336E+01 -.140E+01 -.240E+00   0.137E-03 -.402E-03 0.727E-04
   0.119E+02 0.918E+01 -.170E+02   -.121E+02 -.834E+01 0.180E+02   -.193E+00 -.183E+01 0.181E+00   -.108E-03 -.413E-04 0.130E-03
   0.839E+01 0.139E+02 0.294E+01   -.816E+01 -.139E+02 -.251E+01   -.111E+01 -.314E+00 -.125E+01   0.381E-04 0.172E-03 -.320E-03
   -.159E+02 0.431E+01 0.524E+00   0.150E+02 -.384E+01 -.742E-01   0.238E+01 -.102E+01 -.356E+00   0.194E-03 -.216E-03 -.153E-03
   0.179E+02 -.647E+01 -.334E+01   -.157E+02 0.605E+01 0.428E+01   -.411E+01 0.799E+00 -.175E+01   -.747E-04 -.301E-03 0.199E-03
   0.882E+01 -.556E+01 0.865E+01   -.744E+01 0.686E+01 -.812E+01   -.244E+01 -.142E+01 -.411E+00   -.204E-03 0.469E-04 0.159E-04
   -.136E+02 0.592E+01 -.251E+02   0.135E+02 -.509E+01 0.231E+02   0.122E+01 -.147E+01 0.305E+01   -.939E-04 -.319E-03 0.612E-04
   0.741E+01 -.213E+02 0.277E+01   -.590E+01 0.201E+02 -.296E+01   -.330E+01 0.172E+01 0.110E+01   0.520E-04 -.645E-04 -.235E-03
   0.797E+01 -.255E+01 0.116E+02   -.574E+01 0.891E+00 -.126E+02   -.272E+01 0.199E+01 0.139E+01   -.240E-03 -.492E-04 -.192E-03
   0.208E+01 -.111E+02 0.143E+01   -.322E+01 0.944E+01 -.183E+01   0.258E+01 0.329E+01 0.151E+00   -.122E-03 0.217E-03 -.378E-03
   -.198E+02 -.640E+01 -.137E+02   0.177E+02 0.599E+01 0.140E+02   0.373E+01 0.964E+00 0.313E-01   0.192E-03 -.208E-03 0.272E-03
   0.469E+01 -.984E+01 0.146E+02   -.366E+01 0.112E+02 -.144E+02   -.128E+01 -.391E+00 -.233E+01   -.258E-04 -.294E-03 -.975E-04
   -.153E+01 0.580E+01 0.889E+01   0.936E+00 -.488E+01 -.834E+01   0.544E+00 -.816E+00 -.386E+00   0.139E-03 -.399E-03 -.277E-04
   0.133E+02 0.594E+01 -.615E+00   -.111E+02 -.670E+01 0.101E+01   -.487E+01 0.119E+01 -.127E+01   0.159E-03 -.343E-03 0.153E-03
   0.997E+01 -.120E+02 0.175E+01   -.824E+01 0.117E+02 -.228E+01   -.333E+01 0.103E+01 0.548E+00   -.504E-05 -.206E-03 -.812E-04
   -.897E+01 0.149E+01 -.356E+01   0.714E+01 -.218E+01 0.477E+01   0.343E+01 0.124E+01 -.150E+01   0.191E-03 -.437E-04 0.104E-03
   -.777E+01 0.469E-01 -.552E+01   0.606E+01 0.182E+01 0.464E+01   0.490E+01 -.309E+01 0.280E+00   -.351E-04 0.195E-03 0.526E-04
   -.178E+02 -.312E+01 -.642E+01   0.153E+02 0.282E+01 0.615E+01   0.465E+01 0.915E+00 0.108E+01   -.119E-03 0.218E-03 0.291E-03
   0.280E+01 -.456E+01 0.293E+01   -.465E+01 0.309E+01 -.256E+01   0.238E+01 0.300E+01 -.206E+00   0.676E-04 0.238E-04 0.802E-04
   0.926E+01 -.112E+02 -.126E+01   -.953E+01 0.106E+02 0.784E+00   -.271E+00 0.115E+01 0.823E+00   -.182E-03 -.457E-04 -.106E-03
   -.107E+02 -.283E+02 0.150E+02   0.113E+02 0.271E+02 -.129E+02   -.242E+00 0.358E+01 -.261E+01   0.137E-03 -.177E-03 -.181E-03
   0.134E+01 0.200E+02 0.119E+02   -.369E+01 -.187E+02 -.114E+02   0.435E+01 -.473E+01 -.134E+01   0.230E-03 0.378E-03 0.134E-03
   -.152E+02 -.150E+02 -.112E+02   0.124E+02 0.135E+02 0.117E+02   0.510E+01 0.209E+01 -.824E+00   -.585E-04 0.188E-03 0.283E-03
   -.377E+00 -.226E+01 -.135E+02   0.196E+01 0.202E+01 0.126E+02   -.282E+01 0.477E+00 0.276E+01   -.939E-04 -.281E-03 0.162E-03
   -.316E+01 -.406E+01 -.197E+02   0.256E+01 0.361E+01 0.183E+02   0.128E+01 0.874E+00 0.210E+01   0.166E-03 0.977E-04 0.192E-03
   -.459E+01 0.330E+00 -.618E+01   0.502E+01 -.367E-01 0.657E+01   0.111E+01 -.375E+00 -.735E+00   -.909E-04 0.330E-03 0.315E-03
   0.132E+02 0.238E+02 0.165E+02   -.118E+02 -.246E+02 -.164E+02   -.305E+01 -.435E+00 -.153E+00   0.187E-03 0.321E-03 -.145E-03
   0.696E+01 0.295E+01 -.914E+01   -.629E+01 -.189E+01 0.945E+01   -.778E+00 -.192E+01 0.867E-01   -.119E-03 0.253E-03 -.319E-03
   -.177E+02 -.420E+01 -.548E+01   0.159E+02 0.428E+01 0.571E+01   0.522E+01 -.953E+00 -.135E+01   -.224E-04 -.221E-03 0.194E-03
   0.927E+01 0.136E+02 0.763E+01   -.942E+01 -.113E+02 -.783E+01   -.500E+00 -.399E+01 -.922E+00   0.704E-05 0.175E-03 0.273E-03
   -.112E+02 0.188E+02 0.140E+02   0.807E+01 -.175E+02 -.126E+02   0.521E+01 -.252E+01 -.328E+01   0.202E-03 -.611E-04 -.946E-04
   -.206E+02 0.389E+00 0.183E+01   0.197E+02 0.112E-01 -.179E+01   0.305E+01 -.470E+00 0.795E+00   -.152E-03 0.348E-03 0.104E-03
   0.922E+01 0.811E+01 -.959E+01   -.844E+01 -.911E+01 0.109E+02   -.311E+01 0.735E+00 -.131E+01   -.421E-04 0.356E-03 0.601E-04
   0.292E+02 -.205E+01 0.675E+01   -.263E+02 0.273E-02 -.675E+01   -.612E+01 0.413E+01 -.223E+00   0.175E-03 0.362E-03 0.235E-03
   0.206E+01 -.823E+01 -.820E-01   -.325E+01 0.686E+01 0.193E+01   0.462E+00 0.387E+01 -.224E+01   -.128E-03 -.798E-04 0.170E-05
   0.277E+01 -.140E+01 -.148E+02   -.353E+01 -.103E+00 0.154E+02   0.914E+00 0.197E+01 -.230E+00   -.201E-03 -.340E-03 0.214E-03
   -.557E+01 0.182E+02 -.157E+02   0.524E+01 -.168E+02 0.144E+02   -.202E+00 -.230E+01 0.407E+01   0.169E-03 0.204E-03 0.146E-04
   0.593E+01 0.835E+01 0.123E+01   -.612E+01 -.791E+01 -.245E+01   -.957E+00 -.893E+00 0.104E+01   0.788E-04 0.963E-04 -.133E-03
   -.365E+01 -.564E+01 -.475E+01   0.270E+01 0.680E+01 0.598E+01   0.127E+01 -.193E+01 -.985E+00   0.196E-04 -.363E-03 -.142E-03
   -.220E+01 -.151E+02 -.156E+02   0.401E+01 0.146E+02 0.131E+02   -.771E+00 0.902E+00 0.378E+01   0.136E-03 0.142E-03 0.265E-03
   0.835E+01 -.206E+01 -.137E+02   -.886E+01 0.242E+01 0.148E+02   0.767E-01 0.519E+00 -.124E+01   -.139E-03 -.151E-03 0.237E-03
   -.431E+01 0.188E+02 -.731E+01   0.196E+01 -.177E+02 0.738E+01   0.334E+01 -.290E+01 0.770E-01   0.135E-03 -.307E-03 0.102E-03
   -.206E+01 0.151E+01 -.800E+01   0.140E+01 -.265E+01 0.645E+01   0.189E+01 0.195E+01 0.161E+01   -.204E-03 -.370E-03 0.467E-04
   0.672E+01 -.885E+01 -.110E+02   -.331E+01 0.841E+01 0.105E+02   -.628E+01 0.202E+01 0.745E+00   -.123E-04 -.190E-03 0.512E-04
   0.515E+01 0.163E+02 0.234E+01   -.687E+01 -.145E+02 -.181E+01   0.223E+01 -.354E+01 -.316E+00   0.130E-03 0.255E-03 0.212E-03
   -.136E+02 0.217E+00 -.631E+01   0.120E+02 0.212E+01 0.632E+01   0.258E+01 -.349E+01 0.762E+00   0.106E-03 -.263E-03 0.824E-04
   -.241E+02 0.133E+02 -.142E+02   0.233E+02 -.140E+02 0.133E+02   0.302E+01 0.192E+00 0.281E+01   -.587E-04 0.107E-03 0.219E-03
   0.728E+01 0.380E+01 -.817E+01   -.722E+01 -.541E+01 0.741E+01   -.102E+01 0.185E+01 0.143E+01   0.196E-03 0.194E-03 0.122E-03
   -.736E+01 0.131E+02 0.151E+01   0.837E+01 -.111E+02 -.791E+00   -.127E+01 -.311E+01 -.149E+01   0.452E-04 0.193E-03 -.345E-03
   0.104E+02 -.560E+01 0.834E+01   -.860E+01 0.676E+01 -.602E+01   -.431E+01 -.759E+00 -.438E+01   -.123E-04 0.383E-03 0.345E-03
   0.908E+01 0.763E+01 -.801E+01   -.787E+01 -.766E+01 0.855E+01   -.242E+01 0.906E-01 -.672E+00   0.458E-04 0.131E-03 0.166E-03
   0.209E+02 -.320E+01 0.481E+01   -.184E+02 0.387E+01 -.336E+01   -.572E+01 -.906E+00 -.233E+01   -.176E-03 -.321E-03 0.800E-04
   0.313E+00 0.350E+01 -.242E+02   0.317E+00 -.435E+01 0.210E+02   -.343E+00 0.554E+00 0.606E+01   0.871E-04 0.189E-03 0.244E-03
   -.100E+02 -.109E+02 0.132E+02   0.776E+01 0.104E+02 -.136E+02   0.465E+01 0.243E+00 -.872E+00   -.212E-03 -.276E-03 -.112E-03
   0.481E+01 0.192E+01 -.377E+01   -.331E+01 -.114E+01 0.239E+01   -.290E+01 -.163E+01 0.215E+01   0.141E-03 0.156E-03 -.308E-03
   -.704E+01 0.622E+01 0.279E+02   0.635E+01 -.616E+01 -.279E+02   0.845E+00 -.914E+00 -.227E+01   0.259E-04 -.315E-03 -.202E-03
   0.126E+02 0.156E+02 0.165E+02   -.141E+02 -.154E+02 -.155E+02   -.142E+00 -.118E+01 -.261E+01   -.114E-03 0.296E-03 0.124E-03
   -.179E+02 0.815E+01 0.173E+02   0.175E+02 -.730E+01 -.172E+02   0.197E+01 -.263E+01 -.112E+01   -.171E-03 -.296E-03 -.704E-04
   0.235E+02 0.219E+01 0.130E+02   -.217E+02 -.209E+01 -.125E+02   -.414E+01 0.551E+00 -.125E+01   -.182E-03 0.342E-03 -.262E-03
   0.143E+01 0.259E+02 0.140E+02   -.246E+01 -.227E+02 -.128E+02   0.243E+01 -.557E+01 -.387E+01   0.111E-03 -.564E-04 0.110E-03
   0.324E+01 -.899E-01 0.685E+01   -.329E+01 0.153E+01 -.562E+01   -.397E+00 -.196E+01 -.831E+00   -.169E-03 -.218E-03 -.183E-03
   0.124E+02 0.104E+02 0.123E+02   -.135E+02 -.107E+02 -.146E+02   0.180E+00 -.205E+01 0.332E+01   0.331E-04 -.250E-03 -.124E-03
   -.538E+01 -.865E+00 -.830E+01   0.551E+01 0.172E+01 0.536E+01   0.621E+00 -.214E+01 0.512E+01   -.667E-04 -.272E-03 -.344E-04
 -----------------------------------------------------------------------------------------------
   -.868E+01 -.434E+01 0.182E+01   -.773E-13 -.159E-12 0.968E-13   0.870E+01 0.436E+01 -.183E+01   -.772E-04 -.168E-03 0.210E-03
 
 
 POSITION                                       TOTAL-FORCE (eV/Angst)
 -----------------------------------------------------------------------------------
      1.01669      0.92277      0.44558        -4.141950     -0.062307      0.789318
      1.48101      7.72422      5.87850         0.121780     -0.703286     -0.297888
      6.07131      7.16336      8.91637         1.088170     -2.886964     -0.093218
      0.84301      4.88067      2.41360         0.085410      1.383263      0.145683
      3.10213      2.37364      3.96770         2.683387      1.407786      1.615336
      4.55248      4.30307      3.73523         1.571392     -2.257241      0.848248
      7.08074      3.82651      3.84104        -0.911261      0.713877     -0.139289
      8.66546      3.19032     10.12767        -0.776073      2.174796      0.042090
      8.50123      2.95188      2.13071         0.470453      1.332403     -0.168139
      7.92403      5.86220      4.61692        -0.760373     -1.651402      1.043511
      8.23681      7.36495      3.12172         0.474203      3.366058     -0.070326
      5.50631      2.28269      4.70515        -2.276630     -0.835684     -2.127789
      8.81023      0.08465      4.41662        -0.270792     -0.372146      0.479469
      6.68807      0.05565      1.02061         0.973998      1.835788      0.715578
      7.90528      6.86065      0.95361        -0.662301     -0.106170     -1.090112
      1.61072      9.09243      1.60119         0.460431      0.701470     -0.358920
      1.60077      9.41890      8.79692        -2.430333      2.378956      0.022168
      6.98805      0.65262      8.68764         1.881501     -0.654462     -0.593738
     10.03398      5.27112      0.46283        -1.731762      1.181488     -0.786491
      7.08227      1.48279      3.12045        -1.065635      0.550505     -0.994664
      0.20883      7.29887      1.80636        -1.051980      0.081102     -0.514120
      7.05667      5.66585      6.96495        -2.015389     -0.159592      1.350881
      8.98217      8.26289      5.43732         1.463566      0.970803     -1.986569
      1.26492      4.75303      9.17215         0.823461      0.266506      0.696151
      5.98416      9.04642      7.44143         0.335968     -0.011393      1.287470
      6.03101      8.24448      1.86663        -1.384388     -2.310384     -1.342110
      5.11684      8.08381      4.19347        -1.276258     -0.263136     -0.500480
      7.57342      8.81531      9.84740         2.682570     -0.346463     -0.420558
      5.18536      1.47577      9.65682        -1.706356     -1.072615      1.939996
      4.82413      6.89284      7.05323         0.902355      2.222820     -0.757498
      9.89713      0.95887      2.42511         1.797676      0.554029      1.282233
      5.40453      8.91403      9.81432        -0.800151      3.429282     -0.297000
      2.76083      8.98032      4.43733         0.335256      0.386933     -0.780571
      6.82884      9.51947      3.33746         1.992940      0.263716      0.884027
      3.31041      1.25522      6.00920        -0.637571      0.011595     -1.111533
      5.84269      3.36091      6.59518         2.127998     -0.052153      0.833339
      1.34204      5.44304      5.85394         0.436111     -0.178808      1.542136
      8.81847      4.97904      8.42561         0.873367      0.130342     -0.003514
      3.92885      6.62510      9.35425        -0.446778     -0.987532      1.132765
      2.62895      1.30121      2.16552        -0.879100     -0.301960     -0.817197
      0.42948      3.07528      1.11410         1.449776     -0.554623      0.094599
      3.12132      5.47041      7.52215        -1.886532      0.378748     -0.802869
      6.86628      7.76546      5.47119        -1.054523     -0.118667      0.117372
      6.94551      5.08422      9.64034         1.163957     -0.636309      0.993158
      2.10385      6.74241      3.03597        -1.787705      0.513811      0.905472
      4.97181      2.30254      2.18990        -0.491681      0.333601      0.401491
      3.63178      8.13794      2.40386         1.433374      1.638716     -0.244894
      0.65153      6.40316      7.82216         1.663621      0.555408      0.354978
      4.02117      5.86836      2.39962        -0.252753      1.006248     -2.134216
      9.78816      4.45530      4.68184        -0.052725      0.110684      0.168447
     10.20900      3.82901      6.89812        -2.636807      0.436039     -0.874230
      3.50465      6.62887      5.06460        -1.599642      0.714979      0.015806
      0.31076      2.62923      9.06836         1.607025      0.544891     -0.289324
      2.97438      0.71661     10.20973         3.189620     -1.220088     -0.601141
      5.20270      1.03770      7.05081         2.161547      0.614922      0.805725
      1.40548      2.62312      5.54395         0.533169      1.533196      0.165488
      6.79143      2.37589      0.77122        -0.540925      0.580624      0.350503
      0.05473      6.54198      4.19452         0.361933      2.330364     -0.568414
      1.39976      9.90422      6.27761         2.000125     -3.407366     -0.815743
      7.71448      7.69198      7.60674         2.285693      0.594965     -0.324767
      6.53952      2.98804      8.68011        -1.240183      0.240667      1.826712
      9.17069      7.06414      9.25703         0.680034      0.420406      0.767781
      3.67822     10.13751      8.33049         1.532413     -0.081683     -0.337040
      1.60067      0.78687      4.15652        -1.567401     -1.328522     -0.050581
      4.51894      0.11667      1.54243        -0.105195     -0.864126      0.403538
      1.95303      3.51208      7.62442         3.474620     -0.871148     -1.116823
      2.91848      7.98873      7.85963        -0.653081     -1.724949     -1.125116
      0.55013      2.93800      3.46570         2.104541     -1.214290     -1.878280
      6.02862      9.96825      5.37031         2.212674     -0.068995      0.833416
      3.44814      8.56429      0.25212        -2.333256     -0.264683     -0.017896
     10.08175      1.11957      6.14027        -3.272808      2.085548     -0.220365
      5.55704      6.19837      0.78766        -0.723598      2.500483     -0.388676
      5.10120      4.79148      8.27188         0.156158      0.464349      0.322372
      8.85311      2.37883      4.27527        -0.530830     -0.856257      2.802286
      8.80832      0.91531      0.43187        -1.146898     -0.459542     -0.173289
      2.33336      4.66756      4.13787         0.318170     -0.770546      0.240429
     10.08315      8.45923      7.36965         1.038650      0.337063      1.294851
      4.03663      2.65360      8.12718        -0.432110      0.884400     -0.171786
      7.94151      3.95921      5.94845         0.991242     -1.816312      0.147240
      4.44757      4.08439      0.16935         1.236322      0.805465      0.056040
      2.74494      2.85814     10.01497        -2.858072      1.577894      0.286132
      9.68530      0.69807      8.56575         0.520695     -1.714604      0.214916
      9.16696      6.27593      6.39539         1.026428     -1.153884      0.766696
      7.27838      1.59703      5.84424         2.157256     -0.587684      1.902950
      9.98542      9.04331     10.11017        -0.962452      0.252267      0.678445
      8.79171      9.32012      2.01766        -0.256179     -1.115213     -0.773583
      8.42923      9.96976      7.08555        -2.516048      0.408502     -2.058551
      1.51064      7.40628      9.88851        -1.202229      0.065944     -0.127678
      3.82078      3.71737      6.00892        -3.248134     -0.237431     -0.884377
      1.70443      1.32459      7.61769         0.286794     -0.301085      2.807639
      5.26397      5.38354      5.53732         2.377138     -0.284369     -1.257455
      0.53284      9.00934      3.61141        -1.395011     -0.858361      0.775568
      2.79698      3.70989      2.11089         0.148445     -0.849126     -2.264434
      4.06046      9.22250      6.31029        -1.553168     -1.025480     -1.644887
      6.02866      4.40559      1.91120         1.499426     -1.780180     -0.963334
      4.64929      0.28189      3.80931        -2.394288      0.645067     -0.780839
      8.47838      2.73397      7.90862         1.393340     -2.377678     -2.632086
      6.17117      6.28345      3.27666        -0.447160     -0.515084      0.392372
      8.73976      5.31258      2.32171        -0.973792     -2.358669      1.049468
      2.46539      5.63479      0.58420         0.754085     -1.288116      2.182107
 -----------------------------------------------------------------------------------
    total drift:                                0.023654      0.012753     -0.012735


--------------------------------------------------------------------------------------------------------



  FREE ENERGIE OF THE ION-ELECTRON SYSTEM (eV)
  ---------------------------------------------------
  free  energy   TOTEN  =      -410.08157428 eV

  energy  without entropy=     -410.00096050  energy(sigma->0) =     -410.04126739
 


--------------------------------------------------------------------------------------------------------


    POTLOK:  cpu time    0.0893: real time    0.0896


--------------------------------------------------------------------------------------------------------


     LOOP+:  cpu time   39.6255: real time   40.1850
    4ORBIT:  cpu time    0.0000: real time    0.0000

 total amount of memory used by VASP MPI-rank0    53945. kBytes
=======================================================================

   base      :      30000. kBytes
   nonlr-proj:       8277. kBytes
   fftplans  :       1377. kBytes
   grid      :       7520. kBytes
   one-center:        614. kBytes
   wavefun   :       6157. kBytes
 
  
  
 General timing and accounting informations for this job:
 ========================================================
  
                  Total CPU time used (sec):       40.758
                            User time (sec):       39.158
                          System time (sec):        1.600
                         Elapsed time (sec):       42.338
  
                   Maximum memory used (kb):      184092.
                   Average memory used (kb):           0.
  
                          Minor page faults:       114194
                          Major page faults:            0
                 Voluntary context switches:          894
