BEGIN_CFG
 Size
    100
 Supercell
        10.211495      0.000000      0.000000
         0.000000     10.211495      0.000000
         0.000000      0.000000     10.211495
 AtomData:  id type       cartes_x      cartes_y      cartes_z           fx          fy          fz
             1    0       1.016690      0.922770      0.445580    -4.141950   -0.062307    0.789318
             2    0       1.481010      7.724220      5.878500     0.121780   -0.703286   -0.297888
             3    0       6.071310      7.163360      8.916370     1.088170   -2.886964   -0.093218
             4    0       0.843010      4.880670      2.413600     0.085410    1.383263    0.145683
             5    0       3.102130      2.373640      3.967700     2.683387    1.407786    1.615336
             6    0       4.552480      4.303070      3.735230     1.571392   -2.257241    0.848248
             7    0       7.080740      3.826510      3.841040    -0.911261    0.713877   -0.139289
             8    0       8.665460      3.190320     10.127670    -0.776073    2.174796    0.042090
             9    0       8.501230      2.951880      2.130710     0.470453    1.332403   -0.168139
            10    0       7.924030      5.862200      4.616920    -0.760373   -1.651402    1.043511
            11    0       8.236810      7.364950      3.121720     0.474203    3.366058   -0.070326
            12    0       5.506310      2.282690      4.705150    -2.276630   -0.835684   -2.127789
            13    0       8.810230      0.084650      4.416620    -0.270792   -0.372146    0.479469
            14    0       6.688070      0.055650      1.020610     0.973998    1.835788    0.715578
            15    0       7.905280      6.860650      0.953610    -0.662301   -0.106170   -1.090112
            16    0       1.610720      9.092430      1.601190     0.460431    0.701470   -0.358920
            17    0       1.600770      9.418900      8.796920    -2.430333    2.378956    0.022168
            18    0       6.988050      0.652620      8.687640     1.881501   -0.654462   -0.593738
            19    0      10.033980      5.271120      0.462830    -1.731762    1.181488   -0.786491
            20    0       7.082270      1.482790      3.120450    -1.065635    0.550505   -0.994664
            21    0       0.208830      7.298870      1.806360    -1.051980    0.081102   -0.514120
            22    0       7.056670      5.665850      6.964950    -2.015389   -0.159592    1.350881
            23    0       8.982170      8.262890      5.437320     1.463566    0.970803   -1.986569
            24    0       1.264920      4.753030      9.172150     0.823461    0.266506    0.696151
            25    0       5.984160      9.046420      7.441430     0.335968   -0.011393    1.287470
            26    0       6.031010      8.244480      1.866630    -1.384388   -2.310384   -1.342110
            27    0       5.116840      8.083810      4.193470    -1.276258   -0.263136   -0.500480
            28    0       7.573420      8.815310      9.847400     2.682570   -0.346463   -0.420558
            29    0       5.185360      1.475770      9.656820    -1.706356   -1.072615    1.939996
            30    0       4.824130      6.892840      7.053230     0.902355    2.222820   -0.757498
            31    0       9.897130      0.958870      2.425110     1.797676    0.554029    1.282233
            32    0       5.404530      8.914030      9.814320    -0.800151    3.429282   -0.297000
            33    0       2.760830      8.980320      4.437330     0.335256    0.386933   -0.780571
            34    0       6.828840      9.519470      3.337460     1.992940    0.263716    0.884027
            35    0       3.310410      1.255220      6.009200    -0.637571    0.011595   -1.111533
            36    0       5.842690      3.360910      6.595180     2.127998   -0.052153    0.833339
            37    0       1.342040      5.443040      5.853940     0.436111   -0.178808    1.542136
            38    0       8.818470      4.979040      8.425610     0.873367    0.130342   -0.003514
            39    0       3.928850      6.625100      9.354250    -0.446778   -0.987532    1.132765
            40    0       2.628950      1.301210      2.165520    -0.879100   -0.301960   -0.817197
            41    0       0.429480      3.075280      1.114100     1.449776   -0.554623    0.094599
            42    0       3.121320      5.470410      7.522150    -1.886532    0.378748   -0.802869
            43    0       6.866280      7.765460      5.471190    -1.054523   -0.118667    0.117372
            44    0       6.945510      5.084220      9.640340     1.163957   -0.636309    0.993158
            45    0       2.103850      6.742410      3.035970    -1.787705    0.513811    0.905472
            46    0       4.971810      2.302540      2.189900    -0.491681    0.333601    0.401491
            47    0       3.631780      8.137940      2.403860     1.433374    1.638716   -0.244894
            48    0       0.651530      6.403160      7.822160     1.663621    0.555408    0.354978
            49    0       4.021170      5.868360      2.399620    -0.252753    1.006248   -2.134216
            50    0       9.788160      4.455300      4.681840    -0.052725    0.110684    0.168447
            51    0      10.209000      3.829010      6.898120    -2.636807    0.436039   -0.874230
            52    0       3.504650      6.628870      5.064600    -1.599642    0.714979    0.015806
            53    0       0.310760      2.629230      9.068360     1.607025    0.544891   -0.289324
            54    0       2.974380      0.716610     10.209730     3.189620   -1.220088   -0.601141
            55    0       5.202700      1.037700      7.050810     2.161547    0.614922    0.805725
            56    0       1.405480      2.623120      5.543950     0.533169    1.533196    0.165488
            57    0       6.791430      2.375890      0.771220    -0.540925    0.580624    0.350503
            58    0       0.054730      6.541980      4.194520     0.361933    2.330364   -0.568414
            59    0       1.399760      9.904220      6.277610     2.000125   -3.407366   -0.815743
            60    0       7.714480      7.691980      7.606740     2.285693    0.594965   -0.324767
            61    0       6.539520      2.988040      8.680110    -1.240183    0.240667    1.826712
            62    0       9.170690      7.064140      9.257030     0.680034    0.420406    0.767781
            63    0       3.678220     10.137510      8.330490     1.532413   -0.081683   -0.337040
            64    0       1.600670      0.786870      4.156520    -1.567401   -1.328522   -0.050581
            65    0       4.518940      0.116670      1.542430    -0.105195   -0.864126    0.403538
            66    0       1.953030      3.512080      7.624420     3.474620   -0.871148   -1.116823
            67    0       2.918480      7.988730      7.859630    -0.653081   -1.724949   -1.125116
            68    0       0.550130      2.938000      3.465700     2.104541   -1.214290   -1.878280
            69    0       6.028620      9.968250      5.370310     2.212674   -0.068995    0.833416
            70    0       3.448140      8.564290      0.252120    -2.333256   -0.264683   -0.017896
            71    0      10.081750      1.119570      6.140270    -3.272808    2.085548   -0.220365
            72    0       5.557040      6.198370      0.787660    -0.723598    2.500483   -0.388676
            73    0       5.101200      4.791480      8.271880     0.156158    0.464349    0.322372
            74    0       8.853110      2.378830      4.275270    -0.530830   -0.856257    2.802286
            75    0       8.808320      0.915310      0.431870    -1.146898   -0.459542   -0.173289
            76    0       2.333360      4.667560      4.137870     0.318170   -0.770546    0.240429
            77    0      10.083150      8.459230      7.369650     1.038650    0.337063    1.294851
            78    0       4.036630      2.653600      8.127180    -0.432110    0.884400   -0.171786
            79    0       7.941510      3.959210      5.948450     0.991242   -1.816312    0.147240
            80    0       4.447570      4.084390      0.169350     1.236322    0.805465    0.056040
            81    0       2.744940      2.858140     10.014970    -2.858072    1.577894    0.286132
            82    0       9.685300      0.698070      8.565750     0.520695   -1.714604    0.214916
            83    0       9.166960      6.275930      6.395390     1.026428   -1.153884    0.766696
            84    0       7.278380      1.597030      5.844240     2.157256   -0.587684    1.902950
            85    0       9.985420      9.043310     10.110170    -0.962452    0.252267    0.678445
            86    0       8.791710      9.320120      2.017660    -0.256179   -1.115213   -0.773583
            87    0       8.429230      9.969760      7.085550    -2.516048    0.408502   -2.058551
            88    0       1.510640      7.406280      9.888510    -1.202229    0.065944   -0.127678
            89    0       3.820780      3.717370      6.008920    -3.248134   -0.237431   -0.884377
            90    0       1.704430      1.324590      7.617690     0.286794   -0.301085    2.807639
            91    0       5.263970      5.383540      5.537320     2.377138   -0.284369   -1.257455
            92    0       0.532840      9.009340      3.611410    -1.395011   -0.858361    0.775568
            93    0       2.796980      3.709890      2.110890     0.148445   -0.849126   -2.264434
            94    0       4.060460      9.222500      6.310290    -1.553168   -1.025480   -1.644887
            95    0       6.028660      4.405590      1.911200     1.499426   -1.780180   -0.963334
            96    0       4.649290      0.281890      3.809310    -2.394288    0.645067   -0.780839
            97    0       8.478380      2.733970      7.908620     1.393340   -2.377678   -2.632086
            98    0       6.171170      6.283450      3.276660    -0.447160   -0.515084    0.392372
            99    0       8.739760      5.312580      2.321710    -0.973792   -2.358669    1.049468
           100    0       2.465390      5.634790      0.584200     0.754085   -1.288116    2.182107
 Energy
       -410.081574280000
 PlusStress:  xx          yy          zz          yz          xz          xy
       469.43600   452.55894   455.07273     8.96219   -10.95123     1.31866
 Feature   EFS_by	VASP
END_CFG

