<?xml version="1.0" encoding="ISO-8859-1"?>
<modeling>
 <generator>
  <i name="program" type="string">vasp </i>
  <i name="version" type="string">5.4.4.18Apr17-6-g9f103f2a35  </i>
  <i name="subversion" type="string">(build Sep 16 2020 16:20:45) complex            parallel </i>
  <i name="platform" type="string">LinuxIFC </i>
  <i name="date" type="string">2021 08 10 </i>
  <i name="time" type="string">00:46:32 </i>
 </generator>
 <incar>
  <i type="string" name="PREC">normal</i>
  <i type="string" name="ALGO"> Very Fast</i>
  <i type="int" name="ISPIN">     2</i>
  <i type="int" name="NELM">    60</i>
  <i type="int" name="NELMIN">     4</i>
  <i name="EDIFF">      0.00001000</i>
  <i type="int" name="ISYM">     0</i>
  <i type="string" name="LREAL"> auto</i>
  <i type="int" name="ISMEAR">     0</i>
  <i name="SIGMA">      0.05000000</i>
  <i type="logical" name="LWAVE"> F  </i>
  <i type="logical" name="LCHARG"> F  </i>
  <v type="int" name="KPOINT_BSE">    -1     0     0     0</v>
  <i type="int" name="NELM">    60</i>
 </incar>
 <structure name="primitive_cell" >
  <crystal>
   <varray name="basis" >
    <v>      10.21149500       0.00000000       0.00000000 </v>
    <v>       0.00000000      10.21149500       0.00000000 </v>
    <v>       0.00000000       0.00000000      10.21149500 </v>
   </varray>
   <i name="volume">   1064.79986425 </i>
   <varray name="rec_basis" >
    <v>       0.09792885       0.00000000       0.00000000 </v>
    <v>       0.00000000       0.09792885       0.00000000 </v>
    <v>       0.00000000       0.00000000       0.09792885 </v>
   </varray>
  </crystal>
  <varray name="positions" >
   <v>       0.09956320       0.09036540       0.04363480 </v>
   <v>       0.29127800       0.07017640      -0.00017256 </v>
   <v>       0.04205830       0.30115900       0.10910300 </v>
   <v>      -0.03078500       0.09390070       0.23748800 </v>
   <v>       0.25745000       0.12742600       0.21206700 </v>
   <v>      -0.13741100       0.08963570       0.04229220 </v>
   <v>       0.15773600      -0.10958900       0.15680300 </v>
   <v>       0.03043220       0.25747700      -0.11194600 </v>
   <v>      -0.02213920      -0.11439900      -0.00992300 </v>
   <v>       0.15676200      -0.07761800      -0.13852800 </v>
   <v>      -0.05153000       0.06836140      -0.16116600 </v>
   <v>       0.26880900       0.27989400      -0.01924500 </v>
   <v>       0.16691300       0.12971600      -0.25400800 </v>
   <v>      -0.13903800      -0.08729100       0.19758700 </v>
   <v>      -0.15140100       0.31242400      -0.00820900 </v>
   <v>       0.33767200      -0.16130900       0.02469000 </v>
   <v>       0.05387320       0.28771500       0.33939200 </v>
   <v>       0.36020400      -0.00724500      -0.18420500 </v>
   <v>       0.27390500       0.36330500       0.20671700 </v>
   <v>       0.44253500       0.01142510       0.15104800 </v>
   <v>       0.15675200       0.07705730       0.40704300 </v>
   <v>      -0.16748400       0.28907400       0.20865800 </v>
   <v>       0.14793500      -0.27471100      -0.03163000 </v>
   <v>       0.05218000      -0.11772600       0.35366100 </v>
   <v>       0.19125800       0.34393400      -0.25334900 </v>
   <v>       0.12387200       0.46545900      -0.10178200 </v>
   <v>       0.02045000      -0.28523000       0.17689500 </v>
   <v>      -0.16972200       0.26773500      -0.22551800 </v>
   <v>       0.39530300       0.25986400      -0.20411500 </v>
   <v>      -0.49220400       0.14452000      -0.05431900 </v>
   <v>       0.30378800       0.23244800       0.38855200 </v>
   <v>      -0.01256900      -0.17159700      -0.27829900 </v>
   <v>      -0.25834400      -0.13672700      -0.03565500 </v>
   <v>       0.08255530       0.47795800       0.23636100 </v>
   <v>       0.35565600      -0.20306100       0.23540700 </v>
   <v>      -0.01738400      -0.48380500       0.04532470 </v>
   <v>       0.48688400       0.22548500       0.21445400 </v>
   <v>       0.13707700      -0.03009100      -0.38524100 </v>
   <v>       0.28580300      -0.21767300      -0.23031500 </v>
   <v>      -0.34504500       0.00545000       0.09994740 </v>
   <v>      -0.01270580       0.10963800      -0.39869000 </v>
   <v>       0.43554500       0.39998000       0.01658420 </v>
   <v>      -0.33492300       0.23266800       0.07552510 </v>
   <v>      -0.31566800       0.06391040      -0.14922900 </v>
   <v>      -0.17453500      -0.02367300      -0.30612000 </v>
   <v>      -0.13722400       0.00829000       0.43251500 </v>
   <v>      -0.13302500       0.23295600       0.41867200 </v>
   <v>      -0.10192500      -0.30821700      -0.09347000 </v>
   <v>      -0.00024400       0.37497100      -0.32447500 </v>
   <v>       0.27036500      -0.12056800       0.43454300 </v>
   <v>       0.24143300      -0.44819100       0.05721010 </v>
   <v>      -0.30644100       0.14520800       0.30558200 </v>
   <v>      -0.47074100      -0.12705900      -0.03889500 </v>
   <v>       0.45530000       0.02760550       0.37304100 </v>
   <v>       0.32418500       0.12292200      -0.41152600 </v>
   <v>       0.20602800      -0.33972400       0.29730900 </v>
   <v>      -0.13641700       0.48759200      -0.17489000 </v>
   <v>      -0.14412500      -0.47974500       0.22736200 </v>
   <v>       0.13763700       0.25687900      -0.45708700 </v>
   <v>       0.22850300       0.45708900       0.40521700 </v>
   <v>      -0.22584500      -0.32814400       0.09338560 </v>
   <v>      -0.35959200       0.29261500      -0.14996700 </v>
   <v>      -0.19337900      -0.27875900       0.30570600 </v>
   <v>      -0.33126000      -0.06776900       0.32683400 </v>
   <v>       0.38474800      -0.35121200      -0.08394900 </v>
   <v>      -0.49050600       0.10162100      -0.30952200 </v>
   <v>       0.06380340      -0.37294600      -0.23398500 </v>
   <v>       0.39763600      -0.09685100      -0.38204100 </v>
   <v>      -0.04145700       0.43630200       0.45848700 </v>
   <v>      -0.24453000      -0.24673300      -0.25508100 </v>
   <v>       0.14503400      -0.24357600      -0.42432500 </v>
   <v>       0.44581900       0.42139500       0.36578700 </v>
   <v>       0.30566700      -0.46428900      -0.26336400 </v>
   <v>      -0.40939000      -0.19262800       0.18279700 </v>
   <v>       0.00536000      -0.35935100       0.41076500 </v>
   <v>      -0.31983400       0.49789200      -0.05593300 </v>
   <v>      -0.30659100       0.37472600       0.37614900 </v>
   <v>       0.37416500       0.36403800      -0.41155300 </v>
   <v>       0.39378900      -0.42531800       0.23499200 </v>
   <v>       0.49955500       0.46922400      -0.18994400 </v>
   <v>      -0.12038600      -0.19082500      -0.46752900 </v>
   <v>      -0.28723700       0.15639500      -0.42768000 </v>
   <v>      -0.41397800      -0.11409400      -0.27126900 </v>
   <v>      -0.40962000       0.43143400       0.18716200 </v>
   <v>      -0.46077300       0.22354100       0.46077000 </v>
   <v>      -0.49891400      -0.20836200       0.41066200 </v>
   <v>      -0.22229700       0.38772100      -0.41747500 </v>
   <v>       0.13142400      -0.46696900      -0.42673000 </v>
   <v>      -0.40544400      -0.29850000      -0.12683000 </v>
   <v>      -0.45580500      -0.39300100       0.07713420 </v>
   <v>       0.47242200      -0.32499200      -0.30928500 </v>
   <v>      -0.42783200       0.32913000      -0.35414200 </v>
   <v>      -0.10229000      -0.38540500      -0.37370700 </v>
   <v>       0.34320600      -0.35084200       0.49597000 </v>
   <v>      -0.40962400      -0.02382100      -0.47409200 </v>
   <v>      -0.22400900      -0.42592100       0.45213000 </v>
   <v>      -0.30894800      -0.44515000      -0.31793000 </v>
   <v>      -0.32759300      -0.23953700      -0.46421300 </v>
   <v>      -0.39566400      -0.38466900       0.32088000 </v>
   <v>      -0.48450500      -0.47279600      -0.45773700 </v>
  </varray>
 </structure>
 <varray name="primitive_index" >
  <v type="int" >        1 </v>
  <v type="int" >       54 </v>
  <v type="int" >       41 </v>
  <v type="int" >       31 </v>
  <v type="int" >       40 </v>
  <v type="int" >       75 </v>
  <v type="int" >       16 </v>
  <v type="int" >       53 </v>
  <v type="int" >       85 </v>
  <v type="int" >       17 </v>
  <v type="int" >       82 </v>
  <v type="int" >       81 </v>
  <v type="int" >       90 </v>
  <v type="int" >       86 </v>
  <v type="int" >        8 </v>
  <v type="int" >       70 </v>
  <v type="int" >       68 </v>
  <v type="int" >       63 </v>
  <v type="int" >       93 </v>
  <v type="int" >       65 </v>
  <v type="int" >       64 </v>
  <v type="int" >        9 </v>
  <v type="int" >       88 </v>
  <v type="int" >       92 </v>
  <v type="int" >       66 </v>
  <v type="int" >       24 </v>
  <v type="int" >       21 </v>
  <v type="int" >       97 </v>
  <v type="int" >       78 </v>
  <v type="int" >       29 </v>
  <v type="int" >        5 </v>
  <v type="int" >       77 </v>
  <v type="int" >       28 </v>
  <v type="int" >        4 </v>
  <v type="int" >       47 </v>
  <v type="int" >       19 </v>
  <v type="int" >       46 </v>
  <v type="int" >       59 </v>
  <v type="int" >       67 </v>
  <v type="int" >       14 </v>
  <v type="int" >       71 </v>
  <v type="int" >       80 </v>
  <v type="int" >       57 </v>
  <v type="int" >       18 </v>
  <v type="int" >       87 </v>
  <v type="int" >       13 </v>
  <v type="int" >       74 </v>
  <v type="int" >       62 </v>
  <v type="int" >       51 </v>
  <v type="int" >       33 </v>
  <v type="int" >      100 </v>
  <v type="int" >       20 </v>
  <v type="int" >       32 </v>
  <v type="int" >       96 </v>
  <v type="int" >       35 </v>
  <v type="int" >       45 </v>
  <v type="int" >       38 </v>
  <v type="int" >       99 </v>
  <v type="int" >       56 </v>
  <v type="int" >       76 </v>
  <v type="int" >       15 </v>
  <v type="int" >       61 </v>
  <v type="int" >       11 </v>
  <v type="int" >       34 </v>
  <v type="int" >       39 </v>
  <v type="int" >       55 </v>
  <v type="int" >       48 </v>
  <v type="int" >       94 </v>
  <v type="int" >       50 </v>
  <v type="int" >       60 </v>
  <v type="int" >        2 </v>
  <v type="int" >        6 </v>
  <v type="int" >       42 </v>
  <v type="int" >       26 </v>
  <v type="int" >       58 </v>
  <v type="int" >       44 </v>
  <v type="int" >        7 </v>
  <v type="int" >       89 </v>
  <v type="int" >       49 </v>
  <v type="int" >       73 </v>
  <v type="int" >       23 </v>
  <v type="int" >       84 </v>
  <v type="int" >       25 </v>
  <v type="int" >       95 </v>
  <v type="int" >       12 </v>
  <v type="int" >       27 </v>
  <v type="int" >       79 </v>
  <v type="int" >       37 </v>
  <v type="int" >        3 </v>
  <v type="int" >       72 </v>
  <v type="int" >       30 </v>
  <v type="int" >       36 </v>
  <v type="int" >       83 </v>
  <v type="int" >       52 </v>
  <v type="int" >       69 </v>
  <v type="int" >       10 </v>
  <v type="int" >       22 </v>
  <v type="int" >       43 </v>
  <v type="int" >       98 </v>
  <v type="int" >       91 </v>
 </varray>
 <kpoints>
  <generation param="Gamma">
   <v type="int" name="divisions">       1        1        1 </v>
   <v name="usershift">      0.00000000       0.00000000       0.00000000 </v>
   <v name="genvec1">      1.00000000       0.00000000       0.00000000 </v>
   <v name="genvec2">      0.00000000       1.00000000       0.00000000 </v>
   <v name="genvec3">      0.00000000       0.00000000       1.00000000 </v>
   <v name="shift">      0.00000000       0.00000000       0.00000000 </v>
  </generation>
  <varray name="kpointlist" >
   <v>       0.00000000       0.00000000       0.00000000 </v>
  </varray>
  <varray name="weights" >
   <v>       1.00000000 </v>
  </varray>
 </kpoints>
 <parameters>
  <separator name="general" >
   <i type="string" name="SYSTEM">unknown system</i>
   <i type="logical" name="LCOMPAT"> F  </i>
  </separator>
  <separator name="electronic" >
   <i type="string" name="PREC">normal</i>
   <i name="ENMAX">    245.34500000</i>
   <i name="ENAUG">    322.06900000</i>
   <i name="EDIFF">      0.00001000</i>
   <i type="int" name="IALGO">    48</i>
   <i type="int" name="IWAVPR">    10</i>
   <i type="int" name="NBANDS">   304</i>
   <i name="NELECT">    400.00000000</i>
   <i type="int" name="TURBO">     0</i>
   <i type="int" name="IRESTART">     0</i>
   <i type="int" name="NREBOOT">     0</i>
   <i type="int" name="NMIN">     0</i>
   <i name="EREF">      0.00000000</i>
   <separator name="electronic smearing" >
    <i type="int" name="ISMEAR">     0</i>
    <i name="SIGMA">      0.05000000</i>
    <i name="KSPACING">      0.50000000</i>
    <i type="logical" name="KGAMMA"> T  </i>
   </separator>
   <separator name="electronic projectors" >
    <i type="logical" name="LREAL"> T  </i>
    <v name="ROPT">     -0.00050000</v>
    <i type="int" name="LMAXPAW">  -100</i>
    <i type="int" name="LMAXMIX">     2</i>
    <i type="logical" name="NLSPLINE"> F  </i>
   </separator>
   <separator name="electronic startup" >
    <i type="int" name="ISTART">     0</i>
    <i type="int" name="ICHARG">     2</i>
    <i type="int" name="INIWAV">     1</i>
   </separator>
   <separator name="electronic spin" >
    <i type="int" name="ISPIN">     2</i>
    <i type="logical" name="LNONCOLLINEAR"> F  </i>
    <v name="MAGMOM">      1.00000000      1.00000000      1.00000000      1.00000000      1.00000000      1.00000000      1.00000000      1.00000000      1.00000000      1.00000000      1.00000000      1.00000000      1.00000000      1.00000000      1.00000000      1.00000000      1.00000000      1.00000000      1.00000000      1.00000000
      1.00000000      1.00000000      1.00000000      1.00000000      1.00000000      1.00000000      1.00000000      1.00000000      1.00000000      1.00000000      1.00000000      1.00000000      1.00000000      1.00000000      1.00000000      1.00000000      1.00000000      1.00000000      1.00000000      1.00000000
      1.00000000      1.00000000      1.00000000      1.00000000      1.00000000      1.00000000      1.00000000      1.00000000      1.00000000      1.00000000      1.00000000      1.00000000      1.00000000      1.00000000      1.00000000      1.00000000      1.00000000      1.00000000      1.00000000      1.00000000
      1.00000000      1.00000000      1.00000000      1.00000000      1.00000000      1.00000000      1.00000000      1.00000000      1.00000000      1.00000000      1.00000000      1.00000000      1.00000000      1.00000000      1.00000000      1.00000000      1.00000000      1.00000000      1.00000000      1.00000000
      1.00000000      1.00000000      1.00000000      1.00000000      1.00000000      1.00000000      1.00000000      1.00000000      1.00000000      1.00000000      1.00000000      1.00000000      1.00000000      1.00000000      1.00000000      1.00000000      1.00000000      1.00000000      1.00000000      1.00000000
</v>
    <i name="NUPDOWN">     -1.00000000</i>
    <i type="logical" name="LSORBIT"> F  </i>
    <v name="SAXIS">      0.00000000      0.00000000      1.00000000</v>
    <i type="logical" name="LSPIRAL"> F  </i>
    <v name="QSPIRAL">      0.00000000      0.00000000      0.00000000</v>
    <i type="logical" name="LZEROZ"> F  </i>
   </separator>
   <separator name="electronic exchange-correlation" >
    <i type="logical" name="LASPH"> F  </i>
    <i type="logical" name="LMETAGGA"> F  </i>
   </separator>
   <separator name="electronic convergence" >
    <i type="int" name="NELM">    60</i>
    <i type="int" name="NELMDL">   -12</i>
    <i type="int" name="NELMIN">     4</i>
    <i name="ENINI">    245.34500000</i>
    <separator name="electronic convergence detail" >
     <i type="logical" name="LDIAG"> T  </i>
     <i type="logical" name="LSUBROT"> F  </i>
     <i name="WEIMIN">      0.00000000</i>
     <i name="EBREAK">      0.00000001</i>
     <i name="DEPER">      0.30000000</i>
     <i type="int" name="NRMM">     4</i>
     <i name="TIME">      0.40000000</i>
    </separator>
   </separator>
   <separator name="electronic mixer" >
    <i name="AMIX">      0.40000000</i>
    <i name="BMIX">      1.00000000</i>
    <i name="AMIN">      0.10000000</i>
    <i name="AMIX_MAG">      1.60000000</i>
    <i name="BMIX_MAG">      1.00000000</i>
    <separator name="electronic mixer details" >
     <i type="int" name="IMIX">     4</i>
     <i type="logical" name="MIXFIRST"> F  </i>
     <i type="int" name="MAXMIX">   -45</i>
     <i name="WC">    100.00000000</i>
     <i type="int" name="INIMIX">     1</i>
     <i type="int" name="MIXPRE">     1</i>
     <i type="int" name="MREMOVE">     5</i>
    </separator>
   </separator>
   <separator name="electronic dipolcorrection" >
    <i type="logical" name="LDIPOL"> F  </i>
    <i type="logical" name="LMONO"> F  </i>
    <i type="int" name="IDIPOL">     0</i>
    <i name="EPSILON">      1.00000000</i>
    <v name="DIPOL">   -100.00000000   -100.00000000   -100.00000000</v>
    <i name="EFIELD">      0.00000000</i>
   </separator>
  </separator>
  <separator name="grids" >
   <i type="int" name="NGX">    40</i>
   <i type="int" name="NGY">    40</i>
   <i type="int" name="NGZ">    40</i>
   <i type="int" name="NGXF">    80</i>
   <i type="int" name="NGYF">    80</i>
   <i type="int" name="NGZF">    80</i>
   <i type="logical" name="ADDGRID"> F  </i>
  </separator>
  <separator name="ionic" >
   <i type="int" name="NSW">     0</i>
   <i type="int" name="IBRION">    -1</i>
   <i type="int" name="MDALGO">     0</i>
   <i type="int" name="ISIF">     2</i>
   <i name="PSTRESS">      0.00000000</i>
   <i name="EDIFFG">      0.00010000</i>
   <i type="int" name="NFREE">     0</i>
   <i name="POTIM">      0.50000000</i>
   <i name="SMASS">     -3.00000000</i>
   <i name="SCALEE">      1.00000000</i>
  </separator>
  <separator name="ionic md" >
   <i name="TEBEG">      0.00010000</i>
   <i name="TEEND">      0.00010000</i>
   <i type="int" name="NBLOCK">     1</i>
   <i type="int" name="KBLOCK">     1</i>
   <i type="int" name="NPACO">   256</i>
   <i name="APACO">     16.00000000</i>
  </separator>
  <separator name="symmetry" >
   <i type="int" name="ISYM">     0</i>
   <i name="SYMPREC">      0.00001000</i>
  </separator>
  <separator name="dos" >
   <i type="int" name="LORBIT">     0</i>
   <v name="RWIGS">     -1.00000000</v>
   <i type="int" name="NEDOS">   301</i>
   <i name="EMIN">     10.00000000</i>
   <i name="EMAX">    -10.00000000</i>
   <i name="EFERMI">      0.00000000</i>
  </separator>
  <separator name="writing" >
   <i type="int" name="NWRITE">     2</i>
   <i type="logical" name="LWAVE"> F  </i>
   <i type="logical" name="LDOWNSAMPLE"> F  </i>
   <i type="logical" name="LCHARG"> F  </i>
   <i type="logical" name="LPARD"> F  </i>
   <i type="logical" name="LVTOT"> F  </i>
   <i type="logical" name="LVHAR"> F  </i>
   <i type="logical" name="LELF"> F  </i>
   <i type="logical" name="LOPTICS"> F  </i>
   <v name="STM">      0.00000000      0.00000000      0.00000000      0.00000000      0.00000000      0.00000000      0.00000000</v>
  </separator>
  <separator name="performance" >
   <i type="int" name="NPAR">    16</i>
   <i type="int" name="NSIM">     4</i>
   <i type="int" name="NBLK">    -1</i>
   <i type="logical" name="LPLANE"> T  </i>
   <i type="logical" name="LSCALAPACK"> T  </i>
   <i type="logical" name="LSCAAWARE"> F  </i>
   <i type="logical" name="LSCALU"> F  </i>
   <i type="logical" name="LASYNC"> F  </i>
   <i type="logical" name="LORBITALREAL"> F  </i>
  </separator>
  <separator name="miscellaneous" >
   <i type="int" name="IDIOT">     3</i>
   <i type="int" name="ISPECIAL">     0</i>
   <i type="logical" name="LMUSIC"> F  </i>
   <v name="POMASS">     28.08500000</v>
   <v name="DARWINR">      0.00000000</v>
   <v name="DARWINV">      1.00000000</v>
   <i type="logical" name="LCORR"> T  </i>
  </separator>
  <i type="logical" name="GGA_COMPAT"> T  </i>
  <i type="logical" name="LBERRY"> F  </i>
  <i type="int" name="ICORELEVEL">     0</i>
  <i type="logical" name="LDAU"> F  </i>
  <i type="int" name="I_CONSTRAINED_M">     0</i>
  <separator name="electronic exchange-correlation" >
   <i type="string" name="GGA">--</i>
   <i type="int" name="VOSKOWN">     0</i>
   <i type="logical" name="LHFCALC"> F  </i>
   <i type="string" name="PRECFOCK"></i>
   <i type="logical" name="LSYMGRAD"> F  </i>
   <i type="logical" name="LHFONE"> F  </i>
   <i type="logical" name="LRHFCALC"> F  </i>
   <i type="logical" name="LTHOMAS"> F  </i>
   <i type="logical" name="LMODELHF"> F  </i>
   <i name="ENCUT4O">     -1.00000000</i>
   <i type="int" name="EXXOEP">     0</i>
   <i type="int" name="FOURORBIT">     0</i>
   <i name="AEXX">      0.00000000</i>
   <i name="HFALPHA">      0.00000000</i>
   <i name="MCALPHA">      0.00000000</i>
   <i name="ALDAX">      1.00000000</i>
   <i name="AGGAX">      1.00000000</i>
   <i name="ALDAC">      1.00000000</i>
   <i name="AGGAC">      1.00000000</i>
   <i type="int" name="NKREDX">     1</i>
   <i type="int" name="NKREDY">     1</i>
   <i type="int" name="NKREDZ">     1</i>
   <i type="logical" name="SHIFTRED"> F  </i>
   <i type="logical" name="ODDONLY"> F  </i>
   <i type="logical" name="EVENONLY"> F  </i>
   <i type="int" name="LMAXFOCK">     0</i>
   <i type="int" name="NMAXFOCKAE">     0</i>
   <i type="logical" name="LFOCKAEDFT"> F  </i>
   <i name="HFSCREEN">      0.00000000</i>
   <i name="HFSCREENC">      0.00000000</i>
   <i type="int" name="NBANDSGWLOW">     0</i>
  </separator>
  <separator name="vdW DFT" >
   <i type="logical" name="LUSE_VDW"> F  </i>
   <i name="Zab_VDW">     -0.84910000</i>
   <i name="PARAM1">      0.12340000</i>
   <i name="PARAM2">      1.00000000</i>
   <i name="PARAM3">      0.00000000</i>
  </separator>
  <separator name="model GW" >
   <i type="int" name="MODEL_GW">     0</i>
   <i name="MODEL_EPS0">      6.38879919</i>
   <i name="MODEL_ALPHA">      1.00000000</i>
  </separator>
  <separator name="linear response parameters" >
   <i type="logical" name="LEPSILON"> F  </i>
   <i type="logical" name="LRPA"> F  </i>
   <i type="logical" name="LNABLA"> F  </i>
   <i type="logical" name="LVEL"> F  </i>
   <i type="int" name="KINTER">     0</i>
   <i name="CSHIFT">      0.10000000</i>
   <i name="OMEGAMAX">     -1.00000000</i>
   <i name="DEG_THRESHOLD">      0.00200000</i>
   <i name="RTIME">     -0.10000000</i>
   <i name="WPLASMAI">      0.00000000</i>
   <v name="DFIELD">      0.00000000      0.00000000      0.00000000</v>
   <v name="WPLASMA">      0.00000000      0.00000000      0.00000000      0.00000000      0.00000000      0.00000000      0.00000000      0.00000000      0.00000000</v>
  </separator>
  <separator name="orbital magnetization" >
   <i type="logical" name="NUCIND"> F  </i>
   <v name="MAGPOS">      0.00000000      0.00000000      0.00000000</v>
   <i type="logical" name="LNICSALL"> T  </i>
   <i type="logical" name="ORBITALMAG"> F  </i>
   <i type="logical" name="LMAGBLOCH"> F  </i>
   <i type="logical" name="LCHIMAG"> F  </i>
   <i type="logical" name="LGAUGE"> T  </i>
   <i type="int" name="MAGATOM">     0</i>
   <v name="MAGDIPOL">      0.00000000      0.00000000      0.00000000</v>
   <v name="AVECCONST">      0.00000000      0.00000000      0.00000000</v>
  </separator>
  <separator name="response functions" >
   <i type="logical" name="LADDER"> F  </i>
   <i type="logical" name="LRPAFORCE"> F  </i>
   <i type="logical" name="LFXC"> F  </i>
   <i type="logical" name="LHARTREE"> T  </i>
   <i type="int" name="IBSE">     0</i>
   <v type="int" name="KPOINT">    -1     0     0     0</v>
   <i type="logical" name="LTCTE"> F  </i>
   <i type="logical" name="LTETE"> F  </i>
   <i type="logical" name="LTRIPLET"> F  </i>
   <i type="logical" name="LFXCEPS"> F  </i>
   <i type="logical" name="LFXHEG"> F  </i>
   <i type="int" name="NATURALO">     2</i>
   <i type="logical" name="L2ORDER"> F  </i>
   <i type="logical" name="LMP2LT"> F  </i>
   <i type="logical" name="LUSEW"> F  </i>
   <i name="ENCUTGW">     -2.00000000</i>
   <i name="ENCUTGWSOFT">     -2.00000000</i>
   <i name="ENCUTLF">     -1.00000000</i>
   <i type="int" name="LMAXMP2">    -1</i>
   <i name="SCISSOR">      0.00000000</i>
   <i type="int" name="NOMEGA">     0</i>
   <i type="int" name="NOMEGAR">     0</i>
   <i type="int" name="NBANDSGW">    -1</i>
   <i type="int" name="NBANDSO">    -1</i>
   <i type="int" name="NBANDSV">    -1</i>
   <i type="int" name="NELM">    60</i>
   <i type="int" name="NELMHF">     1</i>
   <i type="int" name="DIM">     3</i>
   <i type="int" name="ANTIRES">     0</i>
   <i name="OMEGAMAX">    -30.00000000</i>
   <i name="OMEGAMIN">    -30.00000000</i>
   <i name="OMEGATL">   -200.00000000</i>
   <i type="int" name="OMEGAGRID">   140</i>
   <i name="CSHIFT">     -0.10000000</i>
   <i type="logical" name="SELFENERGY"> F  </i>
   <i type="logical" name="LSPECTRAL"> F  </i>
   <i type="logical" name="LSPECTRALGW"> F  </i>
   <i type="logical" name="LSINGLES"> F  </i>
   <i type="logical" name="LFERMIGW"> F  </i>
   <i type="logical" name="ODDONLYGW"> F  </i>
   <i type="logical" name="EVENONLYGW"> F  </i>
   <i type="int" name="NKREDLFX">     1</i>
   <i type="int" name="NKREDLFY">     1</i>
   <i type="int" name="NKREDLFZ">     1</i>
   <i type="int" name="MAXMEM">  2800</i>
   <i type="int" name="TELESCOPE">     0</i>
   <i type="int" name="TAUPAR">     1</i>
   <i type="int" name="OMEGAPAR">    -1</i>
   <i name="LAMBDA">      1.00000000</i>
  </separator>
  <separator name="External order field" >
   <i name="OFIELD_KAPPA">      0.00000000</i>
   <v name="OFIELD_K">      0.00000000      0.00000000      0.00000000</v>
   <i name="OFIELD_Q6_NEAR">      0.00000000</i>
   <i name="OFIELD_Q6_FAR">      0.00000000</i>
   <i name="OFIELD_A">      0.00000000</i>
  </separator>
 </parameters>
 <atominfo>
  <atoms>     100 </atoms>
  <types>       1 </types>
  <array name="atoms" >
   <dimension dim="1">ion</dimension>
   <field type="string">element</field>
   <field type="int">atomtype</field>
   <set>
    <rc><c>Si</c><c>   1</c></rc>
    <rc><c>Si</c><c>   1</c></rc>
    <rc><c>Si</c><c>   1</c></rc>
    <rc><c>Si</c><c>   1</c></rc>
    <rc><c>Si</c><c>   1</c></rc>
    <rc><c>Si</c><c>   1</c></rc>
    <rc><c>Si</c><c>   1</c></rc>
    <rc><c>Si</c><c>   1</c></rc>
    <rc><c>Si</c><c>   1</c></rc>
    <rc><c>Si</c><c>   1</c></rc>
    <rc><c>Si</c><c>   1</c></rc>
    <rc><c>Si</c><c>   1</c></rc>
    <rc><c>Si</c><c>   1</c></rc>
    <rc><c>Si</c><c>   1</c></rc>
    <rc><c>Si</c><c>   1</c></rc>
    <rc><c>Si</c><c>   1</c></rc>
    <rc><c>Si</c><c>   1</c></rc>
    <rc><c>Si</c><c>   1</c></rc>
    <rc><c>Si</c><c>   1</c></rc>
    <rc><c>Si</c><c>   1</c></rc>
    <rc><c>Si</c><c>   1</c></rc>
    <rc><c>Si</c><c>   1</c></rc>
    <rc><c>Si</c><c>   1</c></rc>
    <rc><c>Si</c><c>   1</c></rc>
    <rc><c>Si</c><c>   1</c></rc>
    <rc><c>Si</c><c>   1</c></rc>
    <rc><c>Si</c><c>   1</c></rc>
    <rc><c>Si</c><c>   1</c></rc>
    <rc><c>Si</c><c>   1</c></rc>
    <rc><c>Si</c><c>   1</c></rc>
    <rc><c>Si</c><c>   1</c></rc>
    <rc><c>Si</c><c>   1</c></rc>
    <rc><c>Si</c><c>   1</c></rc>
    <rc><c>Si</c><c>   1</c></rc>
    <rc><c>Si</c><c>   1</c></rc>
    <rc><c>Si</c><c>   1</c></rc>
    <rc><c>Si</c><c>   1</c></rc>
    <rc><c>Si</c><c>   1</c></rc>
    <rc><c>Si</c><c>   1</c></rc>
    <rc><c>Si</c><c>   1</c></rc>
    <rc><c>Si</c><c>   1</c></rc>
    <rc><c>Si</c><c>   1</c></rc>
    <rc><c>Si</c><c>   1</c></rc>
    <rc><c>Si</c><c>   1</c></rc>
    <rc><c>Si</c><c>   1</c></rc>
    <rc><c>Si</c><c>   1</c></rc>
    <rc><c>Si</c><c>   1</c></rc>
    <rc><c>Si</c><c>   1</c></rc>
    <rc><c>Si</c><c>   1</c></rc>
    <rc><c>Si</c><c>   1</c></rc>
    <rc><c>Si</c><c>   1</c></rc>
    <rc><c>Si</c><c>   1</c></rc>
    <rc><c>Si</c><c>   1</c></rc>
    <rc><c>Si</c><c>   1</c></rc>
    <rc><c>Si</c><c>   1</c></rc>
    <rc><c>Si</c><c>   1</c></rc>
    <rc><c>Si</c><c>   1</c></rc>
    <rc><c>Si</c><c>   1</c></rc>
    <rc><c>Si</c><c>   1</c></rc>
    <rc><c>Si</c><c>   1</c></rc>
    <rc><c>Si</c><c>   1</c></rc>
    <rc><c>Si</c><c>   1</c></rc>
    <rc><c>Si</c><c>   1</c></rc>
    <rc><c>Si</c><c>   1</c></rc>
    <rc><c>Si</c><c>   1</c></rc>
    <rc><c>Si</c><c>   1</c></rc>
    <rc><c>Si</c><c>   1</c></rc>
    <rc><c>Si</c><c>   1</c></rc>
    <rc><c>Si</c><c>   1</c></rc>
    <rc><c>Si</c><c>   1</c></rc>
    <rc><c>Si</c><c>   1</c></rc>
    <rc><c>Si</c><c>   1</c></rc>
    <rc><c>Si</c><c>   1</c></rc>
    <rc><c>Si</c><c>   1</c></rc>
    <rc><c>Si</c><c>   1</c></rc>
    <rc><c>Si</c><c>   1</c></rc>
    <rc><c>Si</c><c>   1</c></rc>
    <rc><c>Si</c><c>   1</c></rc>
    <rc><c>Si</c><c>   1</c></rc>
    <rc><c>Si</c><c>   1</c></rc>
    <rc><c>Si</c><c>   1</c></rc>
    <rc><c>Si</c><c>   1</c></rc>
    <rc><c>Si</c><c>   1</c></rc>
    <rc><c>Si</c><c>   1</c></rc>
    <rc><c>Si</c><c>   1</c></rc>
    <rc><c>Si</c><c>   1</c></rc>
    <rc><c>Si</c><c>   1</c></rc>
    <rc><c>Si</c><c>   1</c></rc>
    <rc><c>Si</c><c>   1</c></rc>
    <rc><c>Si</c><c>   1</c></rc>
    <rc><c>Si</c><c>   1</c></rc>
    <rc><c>Si</c><c>   1</c></rc>
    <rc><c>Si</c><c>   1</c></rc>
    <rc><c>Si</c><c>   1</c></rc>
    <rc><c>Si</c><c>   1</c></rc>
    <rc><c>Si</c><c>   1</c></rc>
    <rc><c>Si</c><c>   1</c></rc>
    <rc><c>Si</c><c>   1</c></rc>
    <rc><c>Si</c><c>   1</c></rc>
    <rc><c>Si</c><c>   1</c></rc>
   </set>
  </array>
  <array name="atomtypes" >
   <dimension dim="1">type</dimension>
   <field type="int">atomspertype</field>
   <field type="string">element</field>
   <field>mass</field>
   <field>valence</field>
   <field type="string">pseudopotential</field>
   <set>
    <rc><c> 100</c><c>Si</c><c>     28.08500000</c><c>      4.00000000</c><c>  PAW_PBE Si 05Jan2001                  </c></rc>
   </set>
  </array>
 </atominfo>
 <structure name="initialpos" >
  <crystal>
   <varray name="basis" >
    <v>      10.21149500       0.00000000       0.00000000 </v>
    <v>       0.00000000      10.21149500       0.00000000 </v>
    <v>       0.00000000       0.00000000      10.21149500 </v>
   </varray>
   <i name="volume">   1064.79986425 </i>
   <varray name="rec_basis" >
    <v>       0.09792885       0.00000000       0.00000000 </v>
    <v>       0.00000000       0.09792885       0.00000000 </v>
    <v>       0.00000000       0.00000000       0.09792885 </v>
   </varray>
  </crystal>
  <varray name="positions" >
   <v>       0.09956320       0.09036540       0.04363480 </v>
   <v>       0.14503400       0.75642400       0.57567500 </v>
   <v>       0.59455600       0.70150000       0.87317000 </v>
   <v>       0.08255530       0.47795800       0.23636100 </v>
   <v>       0.30378800       0.23244800       0.38855200 </v>
   <v>       0.44581900       0.42139500       0.36578700 </v>
   <v>       0.69340900       0.37472600       0.37614900 </v>
   <v>       0.84859900       0.31242400       0.99179100 </v>
   <v>       0.83251600       0.28907400       0.20865800 </v>
   <v>       0.77599100       0.57407900       0.45213000 </v>
   <v>       0.80662100       0.72124100       0.30570600 </v>
   <v>       0.53922700       0.22354100       0.46077000 </v>
   <v>       0.86277600       0.00829000       0.43251500 </v>
   <v>       0.65495500       0.00545000       0.09994740 </v>
   <v>       0.77415500       0.67185600       0.09338560 </v>
   <v>       0.15773600       0.89041100       0.15680300 </v>
   <v>       0.15676200       0.92238200       0.86147200 </v>
   <v>       0.68433200       0.06391040       0.85077100 </v>
   <v>       0.98261600       0.51619500       0.04532470 </v>
   <v>       0.69355900       0.14520800       0.30558200 </v>
   <v>       0.02045000       0.71477000       0.17689500 </v>
   <v>       0.69105200       0.55485000       0.68207000 </v>
   <v>       0.87961400       0.80917500       0.53247100 </v>
   <v>       0.12387200       0.46545900       0.89821800 </v>
   <v>       0.58602200       0.88590600       0.72873100 </v>
   <v>       0.59061000       0.80737200       0.18279700 </v>
   <v>       0.50108600       0.79163800       0.41066200 </v>
   <v>       0.74165600       0.86327300       0.96434500 </v>
   <v>       0.50779600       0.14452000       0.94568100 </v>
   <v>       0.47242200       0.67500800       0.69071500 </v>
   <v>       0.96921500       0.09390070       0.23748800 </v>
   <v>       0.52925900       0.87294100       0.96110500 </v>
   <v>       0.27036500       0.87943200       0.43454300 </v>
   <v>       0.66874000       0.93223100       0.32683400 </v>
   <v>       0.32418500       0.12292200       0.58847400 </v>
   <v>       0.57216800       0.32913000       0.64585800 </v>
   <v>       0.13142400       0.53303100       0.57327000 </v>
   <v>       0.86358300       0.48759200       0.82511000 </v>
   <v>       0.38474800       0.64878800       0.91605100 </v>
   <v>       0.25745000       0.12742600       0.21206700 </v>
   <v>       0.04205830       0.30115900       0.10910300 </v>
   <v>       0.30566700       0.53571100       0.73663600 </v>
   <v>       0.67240700       0.76046300       0.53578700 </v>
   <v>       0.68016600       0.49789200       0.94406700 </v>
   <v>       0.20602800       0.66027600       0.29730900 </v>
   <v>       0.48688400       0.22548500       0.21445400 </v>
   <v>       0.35565600       0.79693900       0.23540700 </v>
   <v>       0.06380340       0.62705400       0.76601500 </v>
   <v>       0.39378900       0.57468200       0.23499200 </v>
   <v>       0.95854300       0.43630200       0.45848700 </v>
   <v>       0.99975600       0.37497100       0.67552500 </v>
   <v>       0.34320600       0.64915800       0.49597000 </v>
   <v>       0.03043220       0.25747700       0.88805400 </v>
   <v>       0.29127800       0.07017640       0.99982744 </v>
   <v>       0.50949400       0.10162100       0.69047800 </v>
   <v>       0.13763700       0.25687900       0.54291300 </v>
   <v>       0.66507700       0.23266800       0.07552510 </v>
   <v>       0.00536000       0.64064900       0.41076500 </v>
   <v>       0.13707700       0.96990900       0.61475900 </v>
   <v>       0.75547000       0.75326700       0.74491900 </v>
   <v>       0.64040800       0.29261500       0.85003300 </v>
   <v>       0.89807500       0.69178300       0.90653000 </v>
   <v>       0.36020400       0.99275500       0.81579500 </v>
   <v>       0.15675200       0.07705730       0.40704300 </v>
   <v>       0.44253500       0.01142510       0.15104800 </v>
   <v>       0.19125800       0.34393400       0.74665100 </v>
   <v>       0.28580300       0.78232700       0.76968500 </v>
   <v>       0.05387320       0.28771500       0.33939200 </v>
   <v>       0.59037600       0.97617900       0.52590800 </v>
   <v>       0.33767200       0.83869100       0.02469000 </v>
   <v>       0.98729420       0.10963800       0.60131000 </v>
   <v>       0.54419500       0.60699900       0.07713420 </v>
   <v>       0.49955500       0.46922400       0.81005600 </v>
   <v>       0.86697500       0.23295600       0.41867200 </v>
   <v>       0.86258900       0.08963570       0.04229220 </v>
   <v>       0.22850300       0.45708900       0.40521700 </v>
   <v>       0.98743100       0.82840300       0.72170100 </v>
   <v>       0.39530300       0.25986400       0.79588500 </v>
   <v>       0.77770300       0.38772100       0.58252500 </v>
   <v>       0.43554500       0.39998000       0.01658420 </v>
   <v>       0.26880900       0.27989400       0.98075500 </v>
   <v>       0.94847000       0.06836140       0.83883400 </v>
   <v>       0.89771000       0.61459500       0.62629300 </v>
   <v>       0.71276300       0.15639500       0.57232000 </v>
   <v>       0.97786080       0.88560100       0.99007700 </v>
   <v>       0.86096200       0.91270900       0.19758700 </v>
   <v>       0.82546500       0.97632700       0.69388000 </v>
   <v>       0.14793500       0.72528900       0.96837000 </v>
   <v>       0.37416500       0.36403800       0.58844700 </v>
   <v>       0.16691300       0.12971600       0.74599200 </v>
   <v>       0.51549500       0.52720400       0.54226300 </v>
   <v>       0.05218000       0.88227400       0.35366100 </v>
   <v>       0.27390500       0.36330500       0.20671700 </v>
   <v>       0.39763600       0.90314900       0.61795900 </v>
   <v>       0.59038000       0.43143400       0.18716200 </v>
   <v>       0.45530000       0.02760550       0.37304100 </v>
   <v>       0.83027800       0.26773500       0.77448200 </v>
   <v>       0.60433600       0.61533100       0.32088000 </v>
   <v>       0.85587500       0.52025500       0.22736200 </v>
   <v>       0.24143300       0.55180900       0.05721010 </v>
  </varray>
 </structure>
 <calculation>
  <scstep>
   <time name="diag">    0.35    0.35</time>
   <time name="diis">    0.44    0.44</time>
   <time name="orth">    0.10    0.10</time>
   <time name="total">    0.97    1.02</time>
   <energy>
    <i name="alphaZ">    316.14514549 </i>
    <i name="ewald"> -14913.61512562 </i>
    <i name="hartreedc">    -94.90652691 </i>
    <i name="XCdc">   -777.38771485 </i>
    <i name="pawpsdc">   8803.41707833 </i>
    <i name="pawaedc">  -7043.47671478 </i>
    <i name="eentropy">     -0.06017436 </i>
    <i name="bandstr">   4794.71724500 </i>
    <i name="atom">  10306.12861560 </i>
    <i name="e_fr_energy">   1390.96182789 </i>
    <i name="e_wo_entrp">   1391.02200226 </i>
    <i name="e_0_energy">   1390.99191507 </i>
   </energy>
  </scstep>
  <scstep>
   <time name="diag">    0.34    0.34</time>
   <time name="diis">    0.44    0.44</time>
   <time name="orth">    0.10    0.10</time>
   <time name="total">    0.87    0.88</time>
   <energy>
    <i name="e_fr_energy">     14.14544350 </i>
    <i name="e_wo_entrp">     14.18910957 </i>
    <i name="e_0_energy">     14.16727654 </i>
   </energy>
  </scstep>
  <scstep>
   <time name="diag">    0.34    0.34</time>
   <time name="diis">    0.45    0.45</time>
   <time name="orth">    0.10    0.10</time>
   <time name="total">    0.88    0.89</time>
   <energy>
    <i name="e_fr_energy">   -273.81811006 </i>
    <i name="e_wo_entrp">   -273.76572059 </i>
    <i name="e_0_energy">   -273.79191533 </i>
   </energy>
  </scstep>
  <scstep>
   <time name="diag">    0.34    0.34</time>
   <time name="diis">    0.44    0.45</time>
   <time name="orth">    0.10    0.10</time>
   <time name="total">    0.88    0.88</time>
   <energy>
    <i name="e_fr_energy">   -354.61483711 </i>
    <i name="e_wo_entrp">   -354.55103300 </i>
    <i name="e_0_energy">   -354.58293506 </i>
   </energy>
  </scstep>
  <scstep>
   <time name="diag">    0.34    0.34</time>
   <time name="diis">    0.44    0.44</time>
   <time name="orth">    0.10    0.10</time>
   <time name="total">    0.87    0.88</time>
   <energy>
    <i name="e_fr_energy">   -381.05082936 </i>
    <i name="e_wo_entrp">   -381.01425733 </i>
    <i name="e_0_energy">   -381.03254335 </i>
   </energy>
  </scstep>
  <scstep>
   <time name="diag">    0.34    0.34</time>
   <time name="diis">    0.44    0.45</time>
   <time name="orth">    0.10    0.10</time>
   <time name="total">    0.88    0.89</time>
   <energy>
    <i name="e_fr_energy">   -390.64516372 </i>
    <i name="e_wo_entrp">   -390.62437178 </i>
    <i name="e_0_energy">   -390.63476775 </i>
   </energy>
  </scstep>
  <scstep>
   <time name="diag">    0.34    0.34</time>
   <time name="diis">    0.44    0.45</time>
   <time name="orth">    0.10    0.10</time>
   <time name="total">    0.88    0.88</time>
   <energy>
    <i name="e_fr_energy">   -394.08486060 </i>
    <i name="e_wo_entrp">   -394.05750949 </i>
    <i name="e_0_energy">   -394.07118504 </i>
   </energy>
  </scstep>
  <scstep>
   <time name="diag">    0.34    0.34</time>
   <time name="diis">    0.45    0.45</time>
   <time name="orth">    0.10    0.10</time>
   <time name="total">    0.88    0.89</time>
   <energy>
    <i name="e_fr_energy">   -395.44884910 </i>
    <i name="e_wo_entrp">   -395.41014684 </i>
    <i name="e_0_energy">   -395.42949797 </i>
   </energy>
  </scstep>
  <scstep>
   <time name="diag">    0.34    0.34</time>
   <time name="diis">    0.99    1.00</time>
   <time name="orth">    0.10    0.10</time>
   <time name="total">    1.42    1.44</time>
   <energy>
    <i name="e_fr_energy">   -396.22080684 </i>
    <i name="e_wo_entrp">   -396.17583124 </i>
    <i name="e_0_energy">   -396.19831904 </i>
   </energy>
  </scstep>
  <scstep>
   <time name="diag">    0.34    0.34</time>
   <time name="diis">    0.95    0.96</time>
   <time name="orth">    0.10    0.10</time>
   <time name="total">    1.39    1.40</time>
   <energy>
    <i name="e_fr_energy">   -396.31285240 </i>
    <i name="e_wo_entrp">   -396.26735572 </i>
    <i name="e_0_energy">   -396.29010406 </i>
   </energy>
  </scstep>
  <scstep>
   <time name="diag">    0.34    0.34</time>
   <time name="diis">    0.90    0.91</time>
   <time name="orth">    0.10    0.10</time>
   <time name="total">    1.34    1.35</time>
   <energy>
    <i name="e_fr_energy">   -396.31473940 </i>
    <i name="e_wo_entrp">   -396.26925515 </i>
    <i name="e_0_energy">   -396.29199727 </i>
   </energy>
  </scstep>
  <scstep>
   <time name="diag">    0.34    0.34</time>
   <time name="diis">    0.79    0.80</time>
   <time name="orth">    0.10    0.10</time>
   <time name="total">    1.27    1.28</time>
   <energy>
    <i name="e_fr_energy">   -396.31475247 </i>
    <i name="e_wo_entrp">   -396.26926816 </i>
    <i name="e_0_energy">   -396.29201032 </i>
   </energy>
  </scstep>
  <scstep>
   <time name="diag">    0.34    0.34</time>
   <time name="diis">    0.89    0.90</time>
   <time name="orth">    0.10    0.10</time>
   <time name="total">    1.46    1.47</time>
   <energy>
    <i name="e_fr_energy">   -401.50663156 </i>
    <i name="e_wo_entrp">   -401.46559351 </i>
    <i name="e_0_energy">   -401.48611253 </i>
   </energy>
  </scstep>
  <scstep>
   <time name="diag">    0.34    0.34</time>
   <time name="diis">    0.90    0.91</time>
   <time name="orth">    0.10    0.10</time>
   <time name="total">    1.47    1.49</time>
   <energy>
    <i name="e_fr_energy">   -409.14619870 </i>
    <i name="e_wo_entrp">   -409.09084815 </i>
    <i name="e_0_energy">   -409.11852342 </i>
   </energy>
  </scstep>
  <scstep>
   <time name="diag">    0.34    0.34</time>
   <time name="diis">    0.91    0.92</time>
   <time name="orth">    0.10    0.10</time>
   <time name="total">    1.48    1.49</time>
   <energy>
    <i name="e_fr_energy">   -409.78963231 </i>
    <i name="e_wo_entrp">   -409.74985784 </i>
    <i name="e_0_energy">   -409.76974507 </i>
   </energy>
  </scstep>
  <scstep>
   <time name="diag">    0.34    0.34</time>
   <time name="diis">    0.92    0.93</time>
   <time name="orth">    0.10    0.10</time>
   <time name="total">    1.49    1.50</time>
   <energy>
    <i name="e_fr_energy">   -409.94030235 </i>
    <i name="e_wo_entrp">   -409.90650988 </i>
    <i name="e_0_energy">   -409.92340612 </i>
   </energy>
  </scstep>
  <scstep>
   <time name="diag">    0.34    0.34</time>
   <time name="diis">    0.93    0.94</time>
   <time name="orth">    0.10    0.10</time>
   <time name="total">    1.50    1.52</time>
   <energy>
    <i name="e_fr_energy">   -410.03013064 </i>
    <i name="e_wo_entrp">   -409.98548764 </i>
    <i name="e_0_energy">   -410.00780914 </i>
   </energy>
  </scstep>
  <scstep>
   <time name="diag">    0.34    0.34</time>
   <time name="diis">    0.94    0.95</time>
   <time name="orth">    0.10    0.10</time>
   <time name="total">    1.50    1.52</time>
   <energy>
    <i name="e_fr_energy">   -410.06716864 </i>
    <i name="e_wo_entrp">   -410.01292475 </i>
    <i name="e_0_energy">   -410.04004670 </i>
   </energy>
  </scstep>
  <scstep>
   <time name="diag">    0.34    0.34</time>
   <time name="diis">    0.94    0.95</time>
   <time name="orth">    0.10    0.10</time>
   <time name="total">    1.51    1.52</time>
   <energy>
    <i name="e_fr_energy">   -410.07610988 </i>
    <i name="e_wo_entrp">   -410.01382765 </i>
    <i name="e_0_energy">   -410.04496877 </i>
   </energy>
  </scstep>
  <scstep>
   <time name="diag">    0.34    0.34</time>
   <time name="diis">    0.93    0.94</time>
   <time name="orth">    0.10    0.10</time>
   <time name="total">    1.50    1.52</time>
   <energy>
    <i name="e_fr_energy">   -410.07925745 </i>
    <i name="e_wo_entrp">   -410.00967017 </i>
    <i name="e_0_energy">   -410.04446381 </i>
   </energy>
  </scstep>
  <scstep>
   <time name="diag">    0.34    0.34</time>
   <time name="diis">    0.94    0.95</time>
   <time name="orth">    0.10    0.10</time>
   <time name="total">    1.51    1.52</time>
   <energy>
    <i name="e_fr_energy">   -410.08021922 </i>
    <i name="e_wo_entrp">   -410.00717070 </i>
    <i name="e_0_energy">   -410.04369496 </i>
   </energy>
  </scstep>
  <scstep>
   <time name="diag">    0.34    0.34</time>
   <time name="diis">    0.93    0.94</time>
   <time name="orth">    0.10    0.10</time>
   <time name="total">    1.50    1.52</time>
   <energy>
    <i name="e_fr_energy">   -410.08072147 </i>
    <i name="e_wo_entrp">   -410.00522347 </i>
    <i name="e_0_energy">   -410.04297247 </i>
   </energy>
  </scstep>
  <scstep>
   <time name="diag">    0.34    0.34</time>
   <time name="diis">    0.90    0.91</time>
   <time name="orth">    0.10    0.10</time>
   <time name="total">    1.47    1.49</time>
   <energy>
    <i name="e_fr_energy">   -410.08111071 </i>
    <i name="e_wo_entrp">   -410.00357834 </i>
    <i name="e_0_energy">   -410.04234453 </i>
   </energy>
  </scstep>
  <scstep>
   <time name="diag">    0.34    0.34</time>
   <time name="diis">    0.90    0.91</time>
   <time name="orth">    0.10    0.10</time>
   <time name="total">    1.47    1.52</time>
   <energy>
    <i name="e_fr_energy">   -410.08133650 </i>
    <i name="e_wo_entrp">   -410.00236934 </i>
    <i name="e_0_energy">   -410.04185292 </i>
   </energy>
  </scstep>
  <scstep>
   <time name="diag">    0.34    0.34</time>
   <time name="diis">    0.92    0.93</time>
   <time name="orth">    0.10    0.10</time>
   <time name="total">    1.49    1.51</time>
   <energy>
    <i name="e_fr_energy">   -410.08145043 </i>
    <i name="e_wo_entrp">   -410.00173595 </i>
    <i name="e_0_energy">   -410.04159319 </i>
   </energy>
  </scstep>
  <scstep>
   <time name="diag">    0.34    0.34</time>
   <time name="diis">    0.90    0.91</time>
   <time name="orth">    0.10    0.10</time>
   <time name="total">    1.47    1.48</time>
   <energy>
    <i name="e_fr_energy">   -410.08152394 </i>
    <i name="e_wo_entrp">   -410.00125403 </i>
    <i name="e_0_energy">   -410.04138899 </i>
   </energy>
  </scstep>
  <scstep>
   <time name="diag">    0.34    0.34</time>
   <time name="diis">    0.90    0.91</time>
   <time name="orth">    0.10    0.10</time>
   <time name="total">    1.47    1.49</time>
   <energy>
    <i name="e_fr_energy">   -410.08155729 </i>
    <i name="e_wo_entrp">   -410.00106381 </i>
    <i name="e_0_energy">   -410.04131055 </i>
   </energy>
  </scstep>
  <scstep>
   <time name="diag">    0.34    0.34</time>
   <time name="diis">    0.92    0.93</time>
   <time name="orth">    0.10    0.10</time>
   <time name="total">    1.49    1.50</time>
   <energy>
    <i name="e_fr_energy">   -410.08157060 </i>
    <i name="e_wo_entrp">   -410.00096400 </i>
    <i name="e_0_energy">   -410.04126730 </i>
   </energy>
  </scstep>
  <scstep>
   <time name="diag">    0.34    0.34</time>
   <time name="diis">    0.76    0.77</time>
   <time name="orth">    0.10    0.10</time>
   <time name="total">    1.28    1.29</time>
   <energy>
    <i name="alphaZ">    316.14514549 </i>
    <i name="ewald"> -14913.61512562 </i>
    <i name="hartreedc">   -134.48033701 </i>
    <i name="XCdc">   -768.63378405 </i>
    <i name="pawpsdc">  88465.98889866 </i>
    <i name="pawaedc"> -86722.15763168 </i>
    <i name="eentropy">     -0.08061378 </i>
    <i name="bandstr">   3040.62325810 </i>
    <i name="atom">  10306.12861560 </i>
    <i name="e_fr_energy">   -410.08157428 </i>
    <i name="e_wo_entrp">   -410.00096050 </i>
    <i name="e_0_energy">   -410.04126739 </i>
   </energy>
  </scstep>
  <structure>
   <crystal>
    <varray name="basis" >
     <v>      10.21149500       0.00000000       0.00000000 </v>
     <v>       0.00000000      10.21149500       0.00000000 </v>
     <v>       0.00000000       0.00000000      10.21149500 </v>
    </varray>
    <i name="volume">   1064.79986425 </i>
    <varray name="rec_basis" >
     <v>       0.09792885       0.00000000       0.00000000 </v>
     <v>       0.00000000       0.09792885       0.00000000 </v>
     <v>       0.00000000       0.00000000       0.09792885 </v>
    </varray>
   </crystal>
   <varray name="positions" >
    <v>       0.09956320       0.09036540       0.04363480 </v>
    <v>       0.14503400       0.75642400       0.57567500 </v>
    <v>       0.59455600       0.70150000       0.87317000 </v>
    <v>       0.08255530       0.47795800       0.23636100 </v>
    <v>       0.30378800       0.23244800       0.38855200 </v>
    <v>       0.44581900       0.42139500       0.36578700 </v>
    <v>       0.69340900       0.37472600       0.37614900 </v>
    <v>       0.84859900       0.31242400       0.99179100 </v>
    <v>       0.83251600       0.28907400       0.20865800 </v>
    <v>       0.77599100       0.57407900       0.45213000 </v>
    <v>       0.80662100       0.72124100       0.30570600 </v>
    <v>       0.53922700       0.22354100       0.46077000 </v>
    <v>       0.86277600       0.00829000       0.43251500 </v>
    <v>       0.65495500       0.00545000       0.09994740 </v>
    <v>       0.77415500       0.67185600       0.09338560 </v>
    <v>       0.15773600       0.89041100       0.15680300 </v>
    <v>       0.15676200       0.92238200       0.86147200 </v>
    <v>       0.68433200       0.06391040       0.85077100 </v>
    <v>       0.98261600       0.51619500       0.04532470 </v>
    <v>       0.69355900       0.14520800       0.30558200 </v>
    <v>       0.02045000       0.71477000       0.17689500 </v>
    <v>       0.69105200       0.55485000       0.68207000 </v>
    <v>       0.87961400       0.80917500       0.53247100 </v>
    <v>       0.12387200       0.46545900       0.89821800 </v>
    <v>       0.58602200       0.88590600       0.72873100 </v>
    <v>       0.59061000       0.80737200       0.18279700 </v>
    <v>       0.50108600       0.79163800       0.41066200 </v>
    <v>       0.74165600       0.86327300       0.96434500 </v>
    <v>       0.50779600       0.14452000       0.94568100 </v>
    <v>       0.47242200       0.67500800       0.69071500 </v>
    <v>       0.96921500       0.09390070       0.23748800 </v>
    <v>       0.52925900       0.87294100       0.96110500 </v>
    <v>       0.27036500       0.87943200       0.43454300 </v>
    <v>       0.66874000       0.93223100       0.32683400 </v>
    <v>       0.32418500       0.12292200       0.58847400 </v>
    <v>       0.57216800       0.32913000       0.64585800 </v>
    <v>       0.13142400       0.53303100       0.57327000 </v>
    <v>       0.86358300       0.48759200       0.82511000 </v>
    <v>       0.38474800       0.64878800       0.91605100 </v>
    <v>       0.25745000       0.12742600       0.21206700 </v>
    <v>       0.04205830       0.30115900       0.10910300 </v>
    <v>       0.30566700       0.53571100       0.73663600 </v>
    <v>       0.67240700       0.76046300       0.53578700 </v>
    <v>       0.68016600       0.49789200       0.94406700 </v>
    <v>       0.20602800       0.66027600       0.29730900 </v>
    <v>       0.48688400       0.22548500       0.21445400 </v>
    <v>       0.35565600       0.79693900       0.23540700 </v>
    <v>       0.06380340       0.62705400       0.76601500 </v>
    <v>       0.39378900       0.57468200       0.23499200 </v>
    <v>       0.95854300       0.43630200       0.45848700 </v>
    <v>       0.99975600       0.37497100       0.67552500 </v>
    <v>       0.34320600       0.64915800       0.49597000 </v>
    <v>       0.03043220       0.25747700       0.88805400 </v>
    <v>       0.29127800       0.07017640       0.99982744 </v>
    <v>       0.50949400       0.10162100       0.69047800 </v>
    <v>       0.13763700       0.25687900       0.54291300 </v>
    <v>       0.66507700       0.23266800       0.07552510 </v>
    <v>       0.00536000       0.64064900       0.41076500 </v>
    <v>       0.13707700       0.96990900       0.61475900 </v>
    <v>       0.75547000       0.75326700       0.74491900 </v>
    <v>       0.64040800       0.29261500       0.85003300 </v>
    <v>       0.89807500       0.69178300       0.90653000 </v>
    <v>       0.36020400       0.99275500       0.81579500 </v>
    <v>       0.15675200       0.07705730       0.40704300 </v>
    <v>       0.44253500       0.01142510       0.15104800 </v>
    <v>       0.19125800       0.34393400       0.74665100 </v>
    <v>       0.28580300       0.78232700       0.76968500 </v>
    <v>       0.05387320       0.28771500       0.33939200 </v>
    <v>       0.59037600       0.97617900       0.52590800 </v>
    <v>       0.33767200       0.83869100       0.02469000 </v>
    <v>       0.98729420       0.10963800       0.60131000 </v>
    <v>       0.54419500       0.60699900       0.07713420 </v>
    <v>       0.49955500       0.46922400       0.81005600 </v>
    <v>       0.86697500       0.23295600       0.41867200 </v>
    <v>       0.86258900       0.08963570       0.04229220 </v>
    <v>       0.22850300       0.45708900       0.40521700 </v>
    <v>       0.98743100       0.82840300       0.72170100 </v>
    <v>       0.39530300       0.25986400       0.79588500 </v>
    <v>       0.77770300       0.38772100       0.58252500 </v>
    <v>       0.43554500       0.39998000       0.01658420 </v>
    <v>       0.26880900       0.27989400       0.98075500 </v>
    <v>       0.94847000       0.06836140       0.83883400 </v>
    <v>       0.89771000       0.61459500       0.62629300 </v>
    <v>       0.71276300       0.15639500       0.57232000 </v>
    <v>       0.97786080       0.88560100       0.99007700 </v>
    <v>       0.86096200       0.91270900       0.19758700 </v>
    <v>       0.82546500       0.97632700       0.69388000 </v>
    <v>       0.14793500       0.72528900       0.96837000 </v>
    <v>       0.37416500       0.36403800       0.58844700 </v>
    <v>       0.16691300       0.12971600       0.74599200 </v>
    <v>       0.51549500       0.52720400       0.54226300 </v>
    <v>       0.05218000       0.88227400       0.35366100 </v>
    <v>       0.27390500       0.36330500       0.20671700 </v>
    <v>       0.39763600       0.90314900       0.61795900 </v>
    <v>       0.59038000       0.43143400       0.18716200 </v>
    <v>       0.45530000       0.02760550       0.37304100 </v>
    <v>       0.83027800       0.26773500       0.77448200 </v>
    <v>       0.60433600       0.61533100       0.32088000 </v>
    <v>       0.85587500       0.52025500       0.22736200 </v>
    <v>       0.24143300       0.55180900       0.05721010 </v>
   </varray>
  </structure>
  <varray name="forces" >
   <v>      -4.14194974      -0.06230735       0.78931761 </v>
   <v>       0.12177995      -0.70328648      -0.29788802 </v>
   <v>       1.08817048      -2.88696367      -0.09321789 </v>
   <v>       0.08541042       1.38326283       0.14568276 </v>
   <v>       2.68338688       1.40778633       1.61533628 </v>
   <v>       1.57139225      -2.25724063       0.84824803 </v>
   <v>      -0.91126052       0.71387692      -0.13928885 </v>
   <v>      -0.77607270       2.17479573       0.04209017 </v>
   <v>       0.47045299       1.33240301      -0.16813859 </v>
   <v>      -0.76037343      -1.65140248       1.04351051 </v>
   <v>       0.47420297       3.36605813      -0.07032638 </v>
   <v>      -2.27663032      -0.83568430      -2.12778903 </v>
   <v>      -0.27079182      -0.37214646       0.47946944 </v>
   <v>       0.97399838       1.83578753       0.71557802 </v>
   <v>      -0.66230054      -0.10617029      -1.09011240 </v>
   <v>       0.46043101       0.70146955      -0.35891978 </v>
   <v>      -2.43033333       2.37895641       0.02216786 </v>
   <v>       1.88150106      -0.65446162      -0.59373767 </v>
   <v>      -1.73176186       1.18148814      -0.78649104 </v>
   <v>      -1.06563529       0.55050501      -0.99466393 </v>
   <v>      -1.05197960       0.08110193      -0.51411987 </v>
   <v>      -2.01538852      -0.15959167       1.35088104 </v>
   <v>       1.46356606       0.97080266      -1.98656856 </v>
   <v>       0.82346098       0.26650643       0.69615135 </v>
   <v>       0.33596811      -0.01139282       1.28746971 </v>
   <v>      -1.38438790      -2.31038371      -1.34211027 </v>
   <v>      -1.27625792      -0.26313552      -0.50048034 </v>
   <v>       2.68257031      -0.34646278      -0.42055810 </v>
   <v>      -1.70635604      -1.07261550       1.93999561 </v>
   <v>       0.90235459       2.22282028      -0.75749799 </v>
   <v>       1.79767570       0.55402899       1.28223343 </v>
   <v>      -0.80015075       3.42928181      -0.29699956 </v>
   <v>       0.33525553       0.38693336      -0.78057083 </v>
   <v>       1.99293968       0.26371574       0.88402743 </v>
   <v>      -0.63757083       0.01159524      -1.11153288 </v>
   <v>       2.12799806      -0.05215284       0.83333866 </v>
   <v>       0.43611096      -0.17880770       1.54213607 </v>
   <v>       0.87336655       0.13034193      -0.00351367 </v>
   <v>      -0.44677789      -0.98753153       1.13276515 </v>
   <v>      -0.87909974      -0.30195976      -0.81719672 </v>
   <v>       1.44977569      -0.55462301       0.09459902 </v>
   <v>      -1.88653221       0.37874817      -0.80286883 </v>
   <v>      -1.05452316      -0.11866689       0.11737178 </v>
   <v>       1.16395709      -0.63630942       0.99315805 </v>
   <v>      -1.78770452       0.51381102       0.90547189 </v>
   <v>      -0.49168106       0.33360051       0.40149115 </v>
   <v>       1.43337397       1.63871641      -0.24489437 </v>
   <v>       1.66362070       0.55540848       0.35497765 </v>
   <v>      -0.25275314       1.00624781      -2.13421561 </v>
   <v>      -0.05272478       0.11068414       0.16844674 </v>
   <v>      -2.63680661       0.43603895      -0.87422992 </v>
   <v>      -1.59964213       0.71497859       0.01580624 </v>
   <v>       1.60702516       0.54489065      -0.28932403 </v>
   <v>       3.18962008      -1.22008755      -0.60114093 </v>
   <v>       2.16154688       0.61492158       0.80572526 </v>
   <v>       0.53316939       1.53319633       0.16548802 </v>
   <v>      -0.54092472       0.58062407       0.35050290 </v>
   <v>       0.36193293       2.33036373      -0.56841370 </v>
   <v>       2.00012450      -3.40736644      -0.81574309 </v>
   <v>       2.28569293       0.59496464      -0.32476729 </v>
   <v>      -1.24018329       0.24066737       1.82671177 </v>
   <v>       0.68003382       0.42040574       0.76778123 </v>
   <v>       1.53241260      -0.08168250      -0.33704016 </v>
   <v>      -1.56740079      -1.32852194      -0.05058087 </v>
   <v>      -0.10519497      -0.86412637       0.40353752 </v>
   <v>       3.47462027      -0.87114780      -1.11682325 </v>
   <v>      -0.65308050      -1.72494891      -1.12511634 </v>
   <v>       2.10454055      -1.21428955      -1.87828026 </v>
   <v>       2.21267371      -0.06899457       0.83341630 </v>
   <v>      -2.33325625      -0.26468261      -0.01789585 </v>
   <v>      -3.27280756       2.08554783      -0.22036542 </v>
   <v>      -0.72359781       2.50048316      -0.38867550 </v>
   <v>       0.15615819       0.46434895       0.32237248 </v>
   <v>      -0.53082984      -0.85625743       2.80228576 </v>
   <v>      -1.14689754      -0.45954158      -0.17328862 </v>
   <v>       0.31817008      -0.77054583       0.24042890 </v>
   <v>       1.03864990       0.33706284       1.29485119 </v>
   <v>      -0.43210996       0.88439973      -0.17178595 </v>
   <v>       0.99124153      -1.81631226       0.14724025 </v>
   <v>       1.23632199       0.80546477       0.05604007 </v>
   <v>      -2.85807166       1.57789384       0.28613170 </v>
   <v>       0.52069477      -1.71460353       0.21491558 </v>
   <v>       1.02642831      -1.15388391       0.76669616 </v>
   <v>       2.15725604      -0.58768438       1.90295020 </v>
   <v>      -0.96245210       0.25226655       0.67844514 </v>
   <v>      -0.25617863      -1.11521330      -0.77358263 </v>
   <v>      -2.51604838       0.40850243      -2.05855140 </v>
   <v>      -1.20222852       0.06594380      -0.12767754 </v>
   <v>      -3.24813399      -0.23743129      -0.88437658 </v>
   <v>       0.28679380      -0.30108529       2.80763862 </v>
   <v>       2.37713827      -0.28436900      -1.25745462 </v>
   <v>      -1.39501095      -0.85836139       0.77556828 </v>
   <v>       0.14844538      -0.84912550      -2.26443392 </v>
   <v>      -1.55316798      -1.02548037      -1.64488743 </v>
   <v>       1.49942586      -1.78018009      -0.96333438 </v>
   <v>      -2.39428751       0.64506659      -0.78083881 </v>
   <v>       1.39333964      -2.37767816      -2.63208613 </v>
   <v>      -0.44716011      -0.51508354       0.39237174 </v>
   <v>      -0.97379234      -2.35866874       1.04946766 </v>
   <v>       0.75408484      -1.28811637       2.18210750 </v>
  </varray>
  <varray name="stress" >
   <v>     706.34844062       1.98415483     -16.47804395 </v>
   <v>       1.98415487     680.95394371      13.48518464 </v>
   <v>     -16.47804388      13.48518452     684.73639186 </v>
  </varray>
  <energy>
   <i name="e_fr_energy">   -410.08157428 </i>
   <i name="e_wo_entrp">   -410.04126739 </i>
   <i name="e_0_energy">     -0.08061378 </i>
  </energy>
  <time name="totalsc">   39.63   40.18</time>
  <eigenvalues>
   <array>
    <dimension dim="1">band</dimension>
    <dimension dim="2">kpoint</dimension>
    <dimension dim="3">spin</dimension>
    <field>eigene</field>
    <field>occ</field>
    <set>
     <set comment="spin 1">
      <set comment="kpoint 1">
       <r>   -3.0805    1.0000 </r>
       <r>   -1.9516    1.0000 </r>
       <r>   -1.8580    1.0000 </r>
       <r>   -1.7438    1.0000 </r>
       <r>   -1.6993    1.0000 </r>
       <r>   -1.5594    1.0000 </r>
       <r>   -1.4752    1.0000 </r>
       <r>   -0.6243    1.0000 </r>
       <r>   -0.6001    1.0000 </r>
       <r>   -0.5419    1.0000 </r>
       <r>   -0.4845    1.0000 </r>
       <r>   -0.4588    1.0000 </r>
       <r>   -0.3589    1.0000 </r>
       <r>   -0.2832    1.0000 </r>
       <r>   -0.2215    1.0000 </r>
       <r>   -0.1680    1.0000 </r>
       <r>   -0.0162    1.0000 </r>
       <r>    0.0141    1.0000 </r>
       <r>    0.2230    1.0000 </r>
       <r>    0.7986    1.0000 </r>
       <r>    0.8718    1.0000 </r>
       <r>    0.9010    1.0000 </r>
       <r>    1.0414    1.0000 </r>
       <r>    1.1601    1.0000 </r>
       <r>    1.2297    1.0000 </r>
       <r>    1.2407    1.0000 </r>
       <r>    1.3316    1.0000 </r>
       <r>    2.1107    1.0000 </r>
       <r>    2.2796    1.0000 </r>
       <r>    2.3310    1.0000 </r>
       <r>    2.4943    1.0000 </r>
       <r>    2.5770    1.0000 </r>
       <r>    2.7623    1.0000 </r>
       <r>    3.1863    1.0000 </r>
       <r>    3.2260    1.0000 </r>
       <r>    3.2492    1.0000 </r>
       <r>    3.3492    1.0000 </r>
       <r>    3.4217    1.0000 </r>
       <r>    3.4986    1.0000 </r>
       <r>    3.5148    1.0000 </r>
       <r>    3.5655    1.0000 </r>
       <r>    3.5955    1.0000 </r>
       <r>    3.6085    1.0000 </r>
       <r>    3.6684    1.0000 </r>
       <r>    3.6943    1.0000 </r>
       <r>    3.7662    1.0000 </r>
       <r>    3.7884    1.0000 </r>
       <r>    3.8446    1.0000 </r>
       <r>    3.8903    1.0000 </r>
       <r>    3.9344    1.0000 </r>
       <r>    3.9990    1.0000 </r>
       <r>    4.0185    1.0000 </r>
       <r>    4.0918    1.0000 </r>
       <r>    4.1194    1.0000 </r>
       <r>    4.2584    1.0000 </r>
       <r>    4.3069    1.0000 </r>
       <r>    4.4723    1.0000 </r>
       <r>    4.6779    1.0000 </r>
       <r>    4.7302    1.0000 </r>
       <r>    4.7810    1.0000 </r>
       <r>    4.8102    1.0000 </r>
       <r>    4.8633    1.0000 </r>
       <r>    4.9356    1.0000 </r>
       <r>    4.9565    1.0000 </r>
       <r>    5.0021    1.0000 </r>
       <r>    5.0040    1.0000 </r>
       <r>    5.0527    1.0000 </r>
       <r>    5.1257    1.0000 </r>
       <r>    5.1833    1.0000 </r>
       <r>    5.2018    1.0000 </r>
       <r>    5.2748    1.0000 </r>
       <r>    5.2890    1.0000 </r>
       <r>    5.3629    1.0000 </r>
       <r>    5.4172    1.0000 </r>
       <r>    5.4308    1.0000 </r>
       <r>    5.4692    1.0000 </r>
       <r>    5.4914    1.0000 </r>
       <r>    5.5691    1.0000 </r>
       <r>    5.6483    1.0000 </r>
       <r>    5.7254    1.0000 </r>
       <r>    5.9812    1.0000 </r>
       <r>    7.2330    1.0000 </r>
       <r>    7.3277    1.0000 </r>
       <r>    7.3777    1.0000 </r>
       <r>    7.5043    1.0000 </r>
       <r>    7.5278    1.0000 </r>
       <r>    7.5968    1.0000 </r>
       <r>    7.6643    1.0000 </r>
       <r>    7.7575    1.0000 </r>
       <r>    7.8014    1.0000 </r>
       <r>    7.8466    1.0000 </r>
       <r>    7.9185    1.0000 </r>
       <r>    7.9966    1.0000 </r>
       <r>    8.2532    1.0000 </r>
       <r>    8.3102    1.0000 </r>
       <r>    8.3832    1.0000 </r>
       <r>    8.4653    1.0000 </r>
       <r>    8.5240    1.0000 </r>
       <r>    8.5542    1.0000 </r>
       <r>    8.6075    1.0000 </r>
       <r>    8.6169    1.0000 </r>
       <r>    8.6896    1.0000 </r>
       <r>    8.8023    1.0000 </r>
       <r>    8.8528    1.0000 </r>
       <r>    8.9032    1.0000 </r>
       <r>    8.9198    1.0000 </r>
       <r>    8.9511    1.0000 </r>
       <r>    8.9888    1.0000 </r>
       <r>    9.0553    1.0000 </r>
       <r>    9.1246    1.0000 </r>
       <r>    9.1435    1.0000 </r>
       <r>    9.1674    1.0000 </r>
       <r>    9.1862    1.0000 </r>
       <r>    9.2140    1.0000 </r>
       <r>    9.3156    1.0000 </r>
       <r>    9.3687    1.0000 </r>
       <r>    9.3974    1.0000 </r>
       <r>    9.4700    1.0000 </r>
       <r>    9.4888    1.0000 </r>
       <r>    9.5454    1.0000 </r>
       <r>    9.6170    1.0000 </r>
       <r>    9.6295    1.0000 </r>
       <r>    9.7627    1.0000 </r>
       <r>    9.8790    1.0000 </r>
       <r>    9.9414    1.0000 </r>
       <r>   10.0414    1.0000 </r>
       <r>   10.0968    1.0000 </r>
       <r>   10.1442    1.0000 </r>
       <r>   10.1810    1.0000 </r>
       <r>   10.2144    1.0000 </r>
       <r>   10.2948    1.0000 </r>
       <r>   10.3002    1.0000 </r>
       <r>   10.3359    1.0000 </r>
       <r>   10.3696    1.0000 </r>
       <r>   10.3962    1.0000 </r>
       <r>   10.4475    1.0000 </r>
       <r>   10.5274    1.0000 </r>
       <r>   10.5829    1.0000 </r>
       <r>   10.6330    1.0000 </r>
       <r>   10.7234    1.0000 </r>
       <r>   10.7318    1.0000 </r>
       <r>   10.7707    1.0000 </r>
       <r>   10.7908    1.0000 </r>
       <r>   10.8276    1.0000 </r>
       <r>   10.9181    1.0000 </r>
       <r>   10.9463    1.0000 </r>
       <r>   11.1404    1.0000 </r>
       <r>   11.1697    1.0000 </r>
       <r>   11.2017    1.0000 </r>
       <r>   11.3314    1.0000 </r>
       <r>   11.3512    1.0000 </r>
       <r>   11.4205    1.0000 </r>
       <r>   11.5056    1.0000 </r>
       <r>   11.5414    1.0000 </r>
       <r>   11.5875    1.0000 </r>
       <r>   11.6858    1.0000 </r>
       <r>   11.7244    1.0000 </r>
       <r>   11.7544    1.0000 </r>
       <r>   11.7748    1.0000 </r>
       <r>   11.8309    1.0000 </r>
       <r>   11.8752    1.0000 </r>
       <r>   11.9525    1.0000 </r>
       <r>   11.9796    1.0000 </r>
       <r>   12.0126    1.0000 </r>
       <r>   12.0954    1.0000 </r>
       <r>   12.1335    1.0000 </r>
       <r>   12.1922    1.0000 </r>
       <r>   12.2563    1.0000 </r>
       <r>   12.3112    1.0000 </r>
       <r>   12.4123    1.0000 </r>
       <r>   12.5089    1.0000 </r>
       <r>   12.7584    1.0000 </r>
       <r>   12.9296    1.0000 </r>
       <r>   13.0092    1.0000 </r>
       <r>   13.0470    1.0000 </r>
       <r>   13.1332    1.0000 </r>
       <r>   13.2347    1.0000 </r>
       <r>   13.3092    1.0000 </r>
       <r>   13.4271    1.0000 </r>
       <r>   13.5943    1.0000 </r>
       <r>   13.6893    1.0000 </r>
       <r>   13.7571    1.0000 </r>
       <r>   13.7781    1.0000 </r>
       <r>   13.8588    1.0000 </r>
       <r>   13.8980    1.0000 </r>
       <r>   13.9819    1.0000 </r>
       <r>   14.0044    1.0000 </r>
       <r>   14.0361    1.0000 </r>
       <r>   14.1328    1.0000 </r>
       <r>   14.1490    1.0000 </r>
       <r>   14.2351    1.0000 </r>
       <r>   14.2555    1.0000 </r>
       <r>   14.3099    1.0000 </r>
       <r>   14.3643    1.0000 </r>
       <r>   14.4037    1.0000 </r>
       <r>   14.4744    1.0000 </r>
       <r>   14.5392    1.0000 </r>
       <r>   14.5828    0.9997 </r>
       <r>   14.6673    0.8504 </r>
       <r>   14.6879    0.6751 </r>
       <r>   14.7121    0.4091 </r>
       <r>   14.7530    0.0827 </r>
       <r>   14.8164    0.0007 </r>
       <r>   14.8445    0.0000 </r>
       <r>   14.9046    0.0000 </r>
       <r>   14.9384    0.0000 </r>
       <r>   14.9558    0.0000 </r>
       <r>   14.9750    0.0000 </r>
       <r>   15.0355    0.0000 </r>
       <r>   15.0699    0.0000 </r>
       <r>   15.1500    0.0000 </r>
       <r>   15.1947    0.0000 </r>
       <r>   15.2074    0.0000 </r>
       <r>   15.2601    0.0000 </r>
       <r>   15.3654    0.0000 </r>
       <r>   15.3884    0.0000 </r>
       <r>   15.3931    0.0000 </r>
       <r>   15.4220    0.0000 </r>
       <r>   15.5036    0.0000 </r>
       <r>   15.5239    0.0000 </r>
       <r>   15.5506    0.0000 </r>
       <r>   15.5948    0.0000 </r>
       <r>   15.6196    0.0000 </r>
       <r>   15.6624    0.0000 </r>
       <r>   15.7229    0.0000 </r>
       <r>   15.7644    0.0000 </r>
       <r>   15.7863    0.0000 </r>
       <r>   15.8289    0.0000 </r>
       <r>   15.8559    0.0000 </r>
       <r>   15.9536    0.0000 </r>
       <r>   15.9881    0.0000 </r>
       <r>   16.0333    0.0000 </r>
       <r>   16.1074    0.0000 </r>
       <r>   16.1318    0.0000 </r>
       <r>   16.1684    0.0000 </r>
       <r>   16.2032    0.0000 </r>
       <r>   16.2439    0.0000 </r>
       <r>   16.2824    0.0000 </r>
       <r>   16.3404    0.0000 </r>
       <r>   16.3659    0.0000 </r>
       <r>   16.4070    0.0000 </r>
       <r>   16.5349    0.0000 </r>
       <r>   16.5459    0.0000 </r>
       <r>   16.5679    0.0000 </r>
       <r>   16.6316    0.0000 </r>
       <r>   16.7445    0.0000 </r>
       <r>   16.7785    0.0000 </r>
       <r>   16.8623    0.0000 </r>
       <r>   16.8862    0.0000 </r>
       <r>   16.9504    0.0000 </r>
       <r>   17.0555    0.0000 </r>
       <r>   17.9168    0.0000 </r>
       <r>   18.0393    0.0000 </r>
       <r>   18.1080    0.0000 </r>
       <r>   18.1444    0.0000 </r>
       <r>   18.2955    0.0000 </r>
       <r>   18.3753    0.0000 </r>
       <r>   18.4257    0.0000 </r>
       <r>   18.5385    0.0000 </r>
       <r>   18.5835    0.0000 </r>
       <r>   18.5946    0.0000 </r>
       <r>   18.6657    0.0000 </r>
       <r>   18.6803    0.0000 </r>
       <r>   18.7281    0.0000 </r>
       <r>   18.8009    0.0000 </r>
       <r>   18.8819    0.0000 </r>
       <r>   18.9297    0.0000 </r>
       <r>   18.9394    0.0000 </r>
       <r>   18.9563    0.0000 </r>
       <r>   19.0154    0.0000 </r>
       <r>   19.0385    0.0000 </r>
       <r>   19.0738    0.0000 </r>
       <r>   19.0930    0.0000 </r>
       <r>   19.1094    0.0000 </r>
       <r>   19.1797    0.0000 </r>
       <r>   19.2082    0.0000 </r>
       <r>   19.2383    0.0000 </r>
       <r>   19.2845    0.0000 </r>
       <r>   19.3074    0.0000 </r>
       <r>   19.3579    0.0000 </r>
       <r>   19.4281    0.0000 </r>
       <r>   19.4650    0.0000 </r>
       <r>   19.4916    0.0000 </r>
       <r>   19.5506    0.0000 </r>
       <r>   19.5597    0.0000 </r>
       <r>   19.5966    0.0000 </r>
       <r>   19.6094    0.0000 </r>
       <r>   19.6635    0.0000 </r>
       <r>   19.6821    0.0000 </r>
       <r>   19.7273    0.0000 </r>
       <r>   19.7385    0.0000 </r>
       <r>   19.7919    0.0000 </r>
       <r>   19.8353    0.0000 </r>
       <r>   19.8509    0.0000 </r>
       <r>   19.9154    0.0000 </r>
       <r>   19.9234    0.0000 </r>
       <r>   19.9842    0.0000 </r>
       <r>   20.0075    0.0000 </r>
       <r>   20.1008    0.0000 </r>
       <r>   20.1340    0.0000 </r>
       <r>   20.1731    0.0000 </r>
       <r>   20.2057    0.0000 </r>
       <r>   20.2761    0.0000 </r>
       <r>   20.3729    0.0000 </r>
      </set>
     </set>
     <set comment="spin 2">
      <set comment="kpoint 1">
       <r>   -3.0800    1.0000 </r>
       <r>   -1.9511    1.0000 </r>
       <r>   -1.8575    1.0000 </r>
       <r>   -1.7433    1.0000 </r>
       <r>   -1.6989    1.0000 </r>
       <r>   -1.5590    1.0000 </r>
       <r>   -1.4746    1.0000 </r>
       <r>   -0.6238    1.0000 </r>
       <r>   -0.5997    1.0000 </r>
       <r>   -0.5414    1.0000 </r>
       <r>   -0.4841    1.0000 </r>
       <r>   -0.4583    1.0000 </r>
       <r>   -0.3585    1.0000 </r>
       <r>   -0.2827    1.0000 </r>
       <r>   -0.2210    1.0000 </r>
       <r>   -0.1676    1.0000 </r>
       <r>   -0.0157    1.0000 </r>
       <r>    0.0146    1.0000 </r>
       <r>    0.2234    1.0000 </r>
       <r>    0.7991    1.0000 </r>
       <r>    0.8723    1.0000 </r>
       <r>    0.9014    1.0000 </r>
       <r>    1.0419    1.0000 </r>
       <r>    1.1607    1.0000 </r>
       <r>    1.2301    1.0000 </r>
       <r>    1.2411    1.0000 </r>
       <r>    1.3320    1.0000 </r>
       <r>    2.1112    1.0000 </r>
       <r>    2.2801    1.0000 </r>
       <r>    2.3315    1.0000 </r>
       <r>    2.4947    1.0000 </r>
       <r>    2.5774    1.0000 </r>
       <r>    2.7629    1.0000 </r>
       <r>    3.1868    1.0000 </r>
       <r>    3.2265    1.0000 </r>
       <r>    3.2497    1.0000 </r>
       <r>    3.3496    1.0000 </r>
       <r>    3.4222    1.0000 </r>
       <r>    3.4991    1.0000 </r>
       <r>    3.5152    1.0000 </r>
       <r>    3.5659    1.0000 </r>
       <r>    3.5960    1.0000 </r>
       <r>    3.6090    1.0000 </r>
       <r>    3.6688    1.0000 </r>
       <r>    3.6947    1.0000 </r>
       <r>    3.7666    1.0000 </r>
       <r>    3.7888    1.0000 </r>
       <r>    3.8452    1.0000 </r>
       <r>    3.8908    1.0000 </r>
       <r>    3.9349    1.0000 </r>
       <r>    3.9996    1.0000 </r>
       <r>    4.0190    1.0000 </r>
       <r>    4.0923    1.0000 </r>
       <r>    4.1198    1.0000 </r>
       <r>    4.2589    1.0000 </r>
       <r>    4.3074    1.0000 </r>
       <r>    4.4727    1.0000 </r>
       <r>    4.6784    1.0000 </r>
       <r>    4.7306    1.0000 </r>
       <r>    4.7814    1.0000 </r>
       <r>    4.8107    1.0000 </r>
       <r>    4.8638    1.0000 </r>
       <r>    4.9360    1.0000 </r>
       <r>    4.9570    1.0000 </r>
       <r>    5.0026    1.0000 </r>
       <r>    5.0046    1.0000 </r>
       <r>    5.0531    1.0000 </r>
       <r>    5.1262    1.0000 </r>
       <r>    5.1837    1.0000 </r>
       <r>    5.2023    1.0000 </r>
       <r>    5.2753    1.0000 </r>
       <r>    5.2895    1.0000 </r>
       <r>    5.3633    1.0000 </r>
       <r>    5.4176    1.0000 </r>
       <r>    5.4313    1.0000 </r>
       <r>    5.4696    1.0000 </r>
       <r>    5.4919    1.0000 </r>
       <r>    5.5696    1.0000 </r>
       <r>    5.6488    1.0000 </r>
       <r>    5.7260    1.0000 </r>
       <r>    5.9817    1.0000 </r>
       <r>    7.2334    1.0000 </r>
       <r>    7.3282    1.0000 </r>
       <r>    7.3782    1.0000 </r>
       <r>    7.5047    1.0000 </r>
       <r>    7.5283    1.0000 </r>
       <r>    7.5972    1.0000 </r>
       <r>    7.6647    1.0000 </r>
       <r>    7.7580    1.0000 </r>
       <r>    7.8018    1.0000 </r>
       <r>    7.8471    1.0000 </r>
       <r>    7.9189    1.0000 </r>
       <r>    7.9972    1.0000 </r>
       <r>    8.2538    1.0000 </r>
       <r>    8.3107    1.0000 </r>
       <r>    8.3836    1.0000 </r>
       <r>    8.4658    1.0000 </r>
       <r>    8.5245    1.0000 </r>
       <r>    8.5547    1.0000 </r>
       <r>    8.6079    1.0000 </r>
       <r>    8.6174    1.0000 </r>
       <r>    8.6901    1.0000 </r>
       <r>    8.8027    1.0000 </r>
       <r>    8.8532    1.0000 </r>
       <r>    8.9037    1.0000 </r>
       <r>    8.9202    1.0000 </r>
       <r>    8.9516    1.0000 </r>
       <r>    8.9893    1.0000 </r>
       <r>    9.0558    1.0000 </r>
       <r>    9.1251    1.0000 </r>
       <r>    9.1439    1.0000 </r>
       <r>    9.1678    1.0000 </r>
       <r>    9.1868    1.0000 </r>
       <r>    9.2145    1.0000 </r>
       <r>    9.3161    1.0000 </r>
       <r>    9.3691    1.0000 </r>
       <r>    9.3979    1.0000 </r>
       <r>    9.4705    1.0000 </r>
       <r>    9.4892    1.0000 </r>
       <r>    9.5459    1.0000 </r>
       <r>    9.6175    1.0000 </r>
       <r>    9.6300    1.0000 </r>
       <r>    9.7631    1.0000 </r>
       <r>    9.8795    1.0000 </r>
       <r>    9.9419    1.0000 </r>
       <r>   10.0418    1.0000 </r>
       <r>   10.0973    1.0000 </r>
       <r>   10.1446    1.0000 </r>
       <r>   10.1814    1.0000 </r>
       <r>   10.2148    1.0000 </r>
       <r>   10.2952    1.0000 </r>
       <r>   10.3007    1.0000 </r>
       <r>   10.3364    1.0000 </r>
       <r>   10.3700    1.0000 </r>
       <r>   10.3967    1.0000 </r>
       <r>   10.4480    1.0000 </r>
       <r>   10.5279    1.0000 </r>
       <r>   10.5834    1.0000 </r>
       <r>   10.6335    1.0000 </r>
       <r>   10.7239    1.0000 </r>
       <r>   10.7324    1.0000 </r>
       <r>   10.7712    1.0000 </r>
       <r>   10.7913    1.0000 </r>
       <r>   10.8281    1.0000 </r>
       <r>   10.9186    1.0000 </r>
       <r>   10.9468    1.0000 </r>
       <r>   11.1409    1.0000 </r>
       <r>   11.1702    1.0000 </r>
       <r>   11.2022    1.0000 </r>
       <r>   11.3319    1.0000 </r>
       <r>   11.3516    1.0000 </r>
       <r>   11.4210    1.0000 </r>
       <r>   11.5061    1.0000 </r>
       <r>   11.5419    1.0000 </r>
       <r>   11.5879    1.0000 </r>
       <r>   11.6864    1.0000 </r>
       <r>   11.7248    1.0000 </r>
       <r>   11.7549    1.0000 </r>
       <r>   11.7753    1.0000 </r>
       <r>   11.8314    1.0000 </r>
       <r>   11.8757    1.0000 </r>
       <r>   11.9529    1.0000 </r>
       <r>   11.9802    1.0000 </r>
       <r>   12.0130    1.0000 </r>
       <r>   12.0959    1.0000 </r>
       <r>   12.1340    1.0000 </r>
       <r>   12.1926    1.0000 </r>
       <r>   12.2568    1.0000 </r>
       <r>   12.3117    1.0000 </r>
       <r>   12.4128    1.0000 </r>
       <r>   12.5094    1.0000 </r>
       <r>   12.7589    1.0000 </r>
       <r>   12.9300    1.0000 </r>
       <r>   13.0097    1.0000 </r>
       <r>   13.0476    1.0000 </r>
       <r>   13.1336    1.0000 </r>
[...]
       <r>    -1.1573     0.0000     7.0000 </r>
       <r>    -1.0713     0.0000     7.0000 </r>
       <r>    -0.9853     0.0000     7.0000 </r>
       <r>    -0.8993     0.0000     7.0000 </r>
       <r>    -0.8133     0.0000     7.0000 </r>
       <r>    -0.7273     0.0217     7.0019 </r>
       <r>    -0.6413     5.0031     7.4321 </r>
       <r>    -0.5553    21.0352     9.2411 </r>
       <r>    -0.4693    20.6814    11.0196 </r>
       <r>    -0.3833    14.0063    12.2241 </r>
       <r>    -0.2973    12.6691    13.3135 </r>
       <r>    -0.2113    16.0570    14.6944 </r>
       <r>    -0.1253    13.8045    15.8815 </r>
       <r>    -0.0393     5.0466    16.3155 </r>
       <r>     0.0467    17.0149    17.7787 </r>
       <r>     0.1326     2.6280    18.0047 </r>
       <r>     0.2186     5.1356    18.4463 </r>
       <r>     0.3046     6.3128    18.9892 </r>
       <r>     0.3906     0.1256    19.0000 </r>
       <r>     0.4766     0.0000    19.0000 </r>
       <r>     0.5626     0.0000    19.0000 </r>
       <r>     0.6486     0.0001    19.0000 </r>
       <r>     0.7346     0.3973    19.0342 </r>
       <r>     0.8206     9.0439    19.8119 </r>
       <r>     0.9066    18.3701    21.3917 </r>
       <r>     0.9926     7.9626    22.0764 </r>
       <r>     1.0786     9.1196    22.8607 </r>
       <r>     1.1646     8.4964    23.5913 </r>
       <r>     1.2506    20.2135    25.3296 </r>
       <r>     1.3366    14.1512    26.5465 </r>
       <r>     1.4226     5.2125    26.9948 </r>
       <r>     1.5086     0.0606    27.0000 </r>
       <r>     1.5946     0.0000    27.0000 </r>
       <r>     1.6806     0.0000    27.0000 </r>
       <r>     1.7666     0.0000    27.0000 </r>
       <r>     1.8526     0.0000    27.0000 </r>
       <r>     1.9386     0.0000    27.0000 </r>
       <r>     2.0246     0.0829    27.0071 </r>
       <r>     2.1106     5.6460    27.4927 </r>
       <r>     2.1965     5.9139    28.0012 </r>
       <r>     2.2825     7.0871    28.6107 </r>
       <r>     2.3685    14.3738    29.8468 </r>
       <r>     2.4545     3.2709    30.1281 </r>
       <r>     2.5405    10.7362    31.0513 </r>
       <r>     2.6265    10.0750    31.9177 </r>
       <r>     2.7125     1.8541    32.0772 </r>
       <r>     2.7985     8.9099    32.8434 </r>
       <r>     2.8845     1.8176    32.9997 </r>
       <r>     2.9705     0.0034    33.0000 </r>
       <r>     3.0565     0.0013    33.0001 </r>
       <r>     3.1425     1.3368    33.1151 </r>
       <r>     3.2285    18.1741    34.6780 </r>
       <r>     3.3145    16.7836    36.1213 </r>
       <r>     3.4005    12.5194    37.1979 </r>
       <r>     3.4865    15.6992    38.5480 </r>
       <r>     3.5725    27.4663    40.9100 </r>
       <r>     3.6585    29.1344    43.4154 </r>
       <r>     3.7445    21.6440    45.2767 </r>
       <r>     3.8305    22.7105    47.2297 </r>
       <r>     3.9165    21.2442    49.0566 </r>
       <r>     4.0025    20.6243    50.8302 </r>
       <r>     4.0885    20.7366    52.6135 </r>
       <r>     4.1744    15.3938    53.9373 </r>
       <r>     4.2604     7.8199    54.6097 </r>
       <r>     4.3464    14.5272    55.8590 </r>
       <r>     4.4324     3.1155    56.1269 </r>
       <r>     4.5184     9.0114    56.9019 </r>
       <r>     4.6044     1.3540    57.0183 </r>
       <r>     4.6904     8.6986    57.7664 </r>
       <r>     4.7764    20.3504    59.5164 </r>
       <r>     4.8624    22.1880    61.4245 </r>
       <r>     4.9484    20.1100    63.1539 </r>
       <r>     5.0344    31.9686    65.9030 </r>
       <r>     5.1204    18.0158    67.4523 </r>
       <r>     5.2064    21.5967    69.3095 </r>
       <r>     5.2924    22.3865    71.2347 </r>
       <r>     5.3784    18.9451    72.8639 </r>
       <r>     5.4644    29.3916    75.3914 </r>
       <r>     5.5504    21.4486    77.2359 </r>
       <r>     5.6364    12.8221    78.3386 </r>
       <r>     5.7224    12.8175    79.4408 </r>
       <r>     5.8084     6.3876    79.9901 </r>
       <r>     5.8944     0.1936    80.0068 </r>
       <r>     5.9804     5.5631    80.4852 </r>
       <r>     6.0664     5.8902    80.9917 </r>
       <r>     6.1524     0.0966    81.0000 </r>
       <r>     6.2383     0.0000    81.0000 </r>
       <r>     6.3243     0.0000    81.0000 </r>
       <r>     6.4103     0.0000    81.0000 </r>
       <r>     6.4963     0.0000    81.0000 </r>
       <r>     6.5823     0.0000    81.0000 </r>
       <r>     6.6683     0.0000    81.0000 </r>
       <r>     6.7543     0.0000    81.0000 </r>
       <r>     6.8403     0.0000    81.0000 </r>
       <r>     6.9263     0.0000    81.0000 </r>
       <r>     7.0123     0.0000    81.0000 </r>
       <r>     7.0983     0.0008    81.0001 </r>
       <r>     7.1843     0.9565    81.0823 </r>
       <r>     7.2703     9.5457    81.9032 </r>
       <r>     7.3563    13.3795    83.0538 </r>
       <r>     7.4423    11.1287    84.0108 </r>
       <r>     7.5283    14.6878    85.2739 </r>
       <r>     7.6143    17.2100    86.7539 </r>
       <r>     7.7003    13.2635    87.8945 </r>
       <r>     7.7863    14.7193    89.1603 </r>
       <r>     7.8723    19.4319    90.8314 </r>
       <r>     7.9583    13.6071    92.0015 </r>
       <r>     8.0443    10.5429    92.9081 </r>
       <r>     8.1303     1.0699    93.0002 </r>
       <r>     8.2163     1.7193    93.1480 </r>
       <r>     8.3022    13.7592    94.3312 </r>
       <r>     8.3882    14.1937    95.5518 </r>
       <r>     8.4742    13.0990    96.6783 </r>
       <r>     8.5602    21.6997    98.5444 </r>
       <r>     8.6462    25.7171   100.7559 </r>
       <r>     8.7322    13.3715   101.9058 </r>
       <r>     8.8182    10.8638   102.8401 </r>
       <r>     8.9042    23.4087   104.8531 </r>
       <r>     8.9902    29.3100   107.3737 </r>
       <r>     9.0762    16.9087   108.8277 </r>
       <r>     9.1622    28.7403   111.2993 </r>
       <r>     9.2482    29.1177   113.8033 </r>
       <r>     9.3342    12.6646   114.8924 </r>
       <r>     9.4202    21.7540   116.7631 </r>
       <r>     9.5062    22.0476   118.6591 </r>
       <r>     9.5922    18.8723   120.2821 </r>
       <r>     9.6782    18.5627   121.8784 </r>
       <r>     9.7642     7.3760   122.5127 </r>
       <r>     9.8502     8.0104   123.2015 </r>
       <r>     9.9362    13.7401   124.3831 </r>
       <r>    10.0222    10.5992   125.2946 </r>
       <r>    10.1082    17.0659   126.7622 </r>
       <r>    10.1942    24.1551   128.8394 </r>
       <r>    10.2802    20.9692   130.6427 </r>
       <r>    10.3661    32.1285   133.4056 </r>
       <r>    10.4521    24.2830   135.4939 </r>
       <r>    10.5381    14.1675   136.7122 </r>
       <r>    10.6241    18.1312   138.2714 </r>
       <r>    10.7101    16.0442   139.6511 </r>
       <r>    10.7961    32.4357   142.4405 </r>
       <r>    10.8821    19.4772   144.1154 </r>
       <r>    10.9681    17.7967   145.6459 </r>
       <r>    11.0541     4.1911   146.0063 </r>
       <r>    11.1401     8.3871   146.7275 </r>
       <r>    11.2261    22.7880   148.6872 </r>
       <r>    11.3121     8.5229   149.4202 </r>
       <r>    11.3981    19.9374   151.1347 </r>
       <r>    11.4841    13.3451   152.2823 </r>
       <r>    11.5701    20.6669   154.0596 </r>
       <r>    11.6561    13.2294   155.1972 </r>
       <r>    11.7421    22.9110   157.1675 </r>
       <r>    11.8281    26.6857   159.4624 </r>
       <r>    11.9141    18.1186   161.0205 </r>
       <r>    12.0001    22.8202   162.9829 </r>
       <r>    12.0861    17.1574   164.4584 </r>
       <r>    12.1721    19.4663   166.1324 </r>
       <r>    12.2581    16.4450   167.5466 </r>
       <r>    12.3440    15.0269   168.8389 </r>
       <r>    12.4300    10.0019   169.6990 </r>
       <r>    12.5160    10.1627   170.5729 </r>
       <r>    12.6020     4.9152   170.9956 </r>
       <r>    12.6880     0.3130   171.0225 </r>
       <r>    12.7740     7.4803   171.6658 </r>
       <r>    12.8600     4.1395   172.0218 </r>
       <r>    12.9460     8.0331   172.7126 </r>
       <r>    13.0320    15.7401   174.0662 </r>
       <r>    13.1180    14.4198   175.3062 </r>
       <r>    13.2040    10.0103   176.1671 </r>
       <r>    13.2900    12.3381   177.2281 </r>
       <r>    13.3760     9.4669   178.0422 </r>
       <r>    13.4620     9.2253   178.8356 </r>
       <r>    13.5480     2.9903   179.0927 </r>
       <r>    13.6340     9.6698   179.9243 </r>
       <r>    13.7200    12.4786   180.9974 </r>
       <r>    13.8060    20.5706   182.7664 </r>
       <r>    13.8920    17.3110   184.2550 </r>
       <r>    13.9780    16.9160   185.7097 </r>
       <r>    14.0640    23.7986   187.7563 </r>
       <r>    14.1500    16.7414   189.1960 </r>
       <r>    14.2360    18.6502   190.7998 </r>
       <r>    14.3220    22.2616   192.7143 </r>
       <r>    14.4079    20.2823   194.4585 </r>
       <r>    14.4939    15.6473   195.8041 </r>
       <r>    14.5799    17.8848   197.3421 </r>
       <r>    14.6659    17.1542   198.8173 </r>
       <r>    14.7519    29.2732   201.3346 </r>
       <r>    14.8379    21.3229   203.1683 </r>
       <r>    14.9239    24.5498   205.2795 </r>
       <r>    15.0099    31.8836   208.0214 </r>
       <r>    15.0959    20.5028   209.7845 </r>
       <r>    15.1819    18.9210   211.4116 </r>
       <r>    15.2679    24.5344   213.5215 </r>
       <r>    15.3539    13.4935   214.6819 </r>
       <r>    15.4399    33.2983   217.5454 </r>
       <r>    15.5259    22.8991   219.5146 </r>
       <r>    15.6119    30.2390   222.1151 </r>
       <r>    15.6979    23.0087   224.0937 </r>
       <r>    15.7839    25.0366   226.2468 </r>
       <r>    15.8699    26.4474   228.5211 </r>
       <r>    15.9559    13.8283   229.7103 </r>
       <r>    16.0419    21.4562   231.5554 </r>
       <r>    16.1279    20.2916   233.3004 </r>
       <r>    16.2139    28.1363   235.7200 </r>
       <r>    16.2999    23.9172   237.7768 </r>
       <r>    16.3859    24.4121   239.8762 </r>
       <r>    16.4718    13.3113   241.0209 </r>
       <r>    16.5578    20.2710   242.7641 </r>
       <r>    16.6438    21.4926   244.6124 </r>
       <r>    16.7298     9.3264   245.4144 </r>
       <r>    16.8158    17.7844   246.9438 </r>
       <r>    16.9018    19.4215   248.6140 </r>
       <r>    16.9878    14.6861   249.8769 </r>
       <r>    17.0738     9.4898   250.6930 </r>
       <r>    17.1598     3.5509   250.9983 </r>
       <r>    17.2458     0.0192   251.0000 </r>
       <r>    17.3318     0.0000   251.0000 </r>
       <r>    17.4178     0.0000   251.0000 </r>
       <r>    17.5038     0.0000   251.0000 </r>
       <r>    17.5898     0.0000   251.0000 </r>
       <r>    17.6758     0.0000   251.0000 </r>
       <r>    17.7618     0.0001   251.0000 </r>
       <r>    17.8478     0.2871   251.0247 </r>
       <r>    17.9338     7.6334   251.6811 </r>
       <r>    18.0198     7.0821   252.2902 </r>
       <r>    18.1058    14.9228   253.5735 </r>
       <r>    18.1918    15.4285   254.9002 </r>
       <r>    18.2778     4.7148   255.3057 </r>
       <r>    18.3638    12.4747   256.3785 </r>
       <r>    18.4498    15.7730   257.7349 </r>
       <r>    18.5357    10.0136   258.5960 </r>
       <r>    18.6217    25.3441   260.7755 </r>
       <r>    18.7077    25.1536   262.9386 </r>
       <r>    18.7937    16.8335   264.3862 </r>
       <r>    18.8797    14.0230   265.5921 </r>
       <r>    18.9657    31.4652   268.2980 </r>
       <r>    19.0517    30.3935   270.9117 </r>
       <r>    19.1377    33.3459   273.7793 </r>
       <r>    19.2237    25.1293   275.9403 </r>
       <r>    19.3097    27.8878   278.3386 </r>
       <r>    19.3957    19.9036   280.0502 </r>
       <r>    19.4817    23.0654   282.0337 </r>
       <r>    19.5677    29.5108   284.5715 </r>
       <r>    19.6537    33.4878   287.4514 </r>
       <r>    19.7397    31.3055   290.1435 </r>
       <r>    19.8257    27.0392   292.4687 </r>
       <r>    19.9117    27.4792   294.8318 </r>
       <r>    19.9977    25.5477   297.0288 </r>
       <r>    20.0837    16.3591   298.4356 </r>
       <r>    20.1697    30.1772   301.0308 </r>
       <r>    20.2557    14.3997   302.2691 </r>
       <r>    20.3417    17.5974   303.7824 </r>
       <r>    20.4277     2.5264   303.9996 </r>
       <r>    20.5137     0.0042   304.0000 </r>
       <r>    20.5996     0.0000   304.0000 </r>
       <r>    20.6856     0.0000   304.0000 </r>
       <r>    20.7716     0.0000   304.0000 </r>
       <r>    20.8576     0.0000   304.0000 </r>
       <r>    20.9436     0.0000   304.0000 </r>
       <r>    21.0296     0.0000   304.0000 </r>
       <r>    21.1156     0.0000   304.0000 </r>
       <r>    21.2016     0.0000   304.0000 </r>
       <r>    21.2876     0.0000   304.0000 </r>
       <r>    21.3736     0.0000   304.0000 </r>
       <r>    21.4596     0.0000   304.0000 </r>
       <r>    21.5456     0.0000   304.0000 </r>
      </set>
     </set>
    </array>
   </total>
  </dos>
 </calculation>
 <structure name="finalpos" >
  <crystal>
   <varray name="basis" >
    <v>      10.21149500       0.00000000       0.00000000 </v>
    <v>       0.00000000      10.21149500       0.00000000 </v>
    <v>       0.00000000       0.00000000      10.21149500 </v>
   </varray>
   <i name="volume">   1064.79986425 </i>
   <varray name="rec_basis" >
    <v>       0.09792885       0.00000000       0.00000000 </v>
    <v>       0.00000000       0.09792885       0.00000000 </v>
    <v>       0.00000000       0.00000000       0.09792885 </v>
   </varray>
  </crystal>
  <varray name="positions" >
   <v>       0.09956320       0.09036540       0.04363480 </v>
   <v>       0.14503400       0.75642400       0.57567500 </v>
   <v>       0.59455600       0.70150000       0.87317000 </v>
   <v>       0.08255530       0.47795800       0.23636100 </v>
   <v>       0.30378800       0.23244800       0.38855200 </v>
   <v>       0.44581900       0.42139500       0.36578700 </v>
   <v>       0.69340900       0.37472600       0.37614900 </v>
   <v>       0.84859900       0.31242400       0.99179100 </v>
   <v>       0.83251600       0.28907400       0.20865800 </v>
   <v>       0.77599100       0.57407900       0.45213000 </v>
   <v>       0.80662100       0.72124100       0.30570600 </v>
   <v>       0.53922700       0.22354100       0.46077000 </v>
   <v>       0.86277600       0.00829000       0.43251500 </v>
   <v>       0.65495500       0.00545000       0.09994740 </v>
   <v>       0.77415500       0.67185600       0.09338560 </v>
   <v>       0.15773600       0.89041100       0.15680300 </v>
   <v>       0.15676200       0.92238200       0.86147200 </v>
   <v>       0.68433200       0.06391040       0.85077100 </v>
   <v>       0.98261600       0.51619500       0.04532470 </v>
   <v>       0.69355900       0.14520800       0.30558200 </v>
   <v>       0.02045000       0.71477000       0.17689500 </v>
   <v>       0.69105200       0.55485000       0.68207000 </v>
   <v>       0.87961400       0.80917500       0.53247100 </v>
   <v>       0.12387200       0.46545900       0.89821800 </v>
   <v>       0.58602200       0.88590600       0.72873100 </v>
   <v>       0.59061000       0.80737200       0.18279700 </v>
   <v>       0.50108600       0.79163800       0.41066200 </v>
   <v>       0.74165600       0.86327300       0.96434500 </v>
   <v>       0.50779600       0.14452000       0.94568100 </v>
   <v>       0.47242200       0.67500800       0.69071500 </v>
   <v>       0.96921500       0.09390070       0.23748800 </v>
   <v>       0.52925900       0.87294100       0.96110500 </v>
   <v>       0.27036500       0.87943200       0.43454300 </v>
   <v>       0.66874000       0.93223100       0.32683400 </v>
   <v>       0.32418500       0.12292200       0.58847400 </v>
   <v>       0.57216800       0.32913000       0.64585800 </v>
   <v>       0.13142400       0.53303100       0.57327000 </v>
   <v>       0.86358300       0.48759200       0.82511000 </v>
   <v>       0.38474800       0.64878800       0.91605100 </v>
   <v>       0.25745000       0.12742600       0.21206700 </v>
   <v>       0.04205830       0.30115900       0.10910300 </v>
   <v>       0.30566700       0.53571100       0.73663600 </v>
   <v>       0.67240700       0.76046300       0.53578700 </v>
   <v>       0.68016600       0.49789200       0.94406700 </v>
   <v>       0.20602800       0.66027600       0.29730900 </v>
   <v>       0.48688400       0.22548500       0.21445400 </v>
   <v>       0.35565600       0.79693900       0.23540700 </v>
   <v>       0.06380340       0.62705400       0.76601500 </v>
   <v>       0.39378900       0.57468200       0.23499200 </v>
   <v>       0.95854300       0.43630200       0.45848700 </v>
   <v>       0.99975600       0.37497100       0.67552500 </v>
   <v>       0.34320600       0.64915800       0.49597000 </v>
   <v>       0.03043220       0.25747700       0.88805400 </v>
   <v>       0.29127800       0.07017640       0.99982744 </v>
   <v>       0.50949400       0.10162100       0.69047800 </v>
   <v>       0.13763700       0.25687900       0.54291300 </v>
   <v>       0.66507700       0.23266800       0.07552510 </v>
   <v>       0.00536000       0.64064900       0.41076500 </v>
   <v>       0.13707700       0.96990900       0.61475900 </v>
   <v>       0.75547000       0.75326700       0.74491900 </v>
   <v>       0.64040800       0.29261500       0.85003300 </v>
   <v>       0.89807500       0.69178300       0.90653000 </v>
   <v>       0.36020400       0.99275500       0.81579500 </v>
   <v>       0.15675200       0.07705730       0.40704300 </v>
   <v>       0.44253500       0.01142510       0.15104800 </v>
   <v>       0.19125800       0.34393400       0.74665100 </v>
   <v>       0.28580300       0.78232700       0.76968500 </v>
   <v>       0.05387320       0.28771500       0.33939200 </v>
   <v>       0.59037600       0.97617900       0.52590800 </v>
   <v>       0.33767200       0.83869100       0.02469000 </v>
   <v>       0.98729420       0.10963800       0.60131000 </v>
   <v>       0.54419500       0.60699900       0.07713420 </v>
   <v>       0.49955500       0.46922400       0.81005600 </v>
   <v>       0.86697500       0.23295600       0.41867200 </v>
   <v>       0.86258900       0.08963570       0.04229220 </v>
   <v>       0.22850300       0.45708900       0.40521700 </v>
   <v>       0.98743100       0.82840300       0.72170100 </v>
   <v>       0.39530300       0.25986400       0.79588500 </v>
   <v>       0.77770300       0.38772100       0.58252500 </v>
   <v>       0.43554500       0.39998000       0.01658420 </v>
   <v>       0.26880900       0.27989400       0.98075500 </v>
   <v>       0.94847000       0.06836140       0.83883400 </v>
   <v>       0.89771000       0.61459500       0.62629300 </v>
   <v>       0.71276300       0.15639500       0.57232000 </v>
   <v>       0.97786080       0.88560100       0.99007700 </v>
   <v>       0.86096200       0.91270900       0.19758700 </v>
   <v>       0.82546500       0.97632700       0.69388000 </v>
   <v>       0.14793500       0.72528900       0.96837000 </v>
   <v>       0.37416500       0.36403800       0.58844700 </v>
   <v>       0.16691300       0.12971600       0.74599200 </v>
   <v>       0.51549500       0.52720400       0.54226300 </v>
   <v>       0.05218000       0.88227400       0.35366100 </v>
   <v>       0.27390500       0.36330500       0.20671700 </v>
   <v>       0.39763600       0.90314900       0.61795900 </v>
   <v>       0.59038000       0.43143400       0.18716200 </v>
   <v>       0.45530000       0.02760550       0.37304100 </v>
   <v>       0.83027800       0.26773500       0.77448200 </v>
   <v>       0.60433600       0.61533100       0.32088000 </v>
   <v>       0.85587500       0.52025500       0.22736200 </v>
   <v>       0.24143300       0.55180900       0.05721010 </v>
  </varray>
 </structure>
</modeling>
