unknown system                          
           1
    10.211495    0.000000    0.000000
     0.000000   10.211495    0.000000
     0.000000    0.000000   10.211495
   Si
 100
Direct configuration=     1
   0.09956320  0.09036540  0.04363480
   0.14503400  0.75642400  0.57567500
   0.59455600  0.70150000  0.87317000
   0.08255530  0.47795800  0.23636100
   0.30378800  0.23244800  0.38855200
   0.44581900  0.42139500  0.36578700
   0.69340900  0.37472600  0.37614900
   0.84859900  0.31242400  0.99179100
   0.83251600  0.28907400  0.20865800
   0.77599100  0.57407900  0.45213000
   0.80662100  0.72124100  0.30570600
   0.53922700  0.22354100  0.46077000
   0.86277600  0.00829000  0.43251500
   0.65495500  0.00545000  0.09994740
   0.77415500  0.67185600  0.09338560
   0.15773600  0.89041100  0.15680300
   0.15676200  0.92238200  0.86147200
   0.68433200  0.06391040  0.85077100
   0.98261600  0.51619500  0.04532470
   0.69355900  0.14520800  0.30558200
   0.02045000  0.71477000  0.17689500
   0.69105200  0.55485000  0.68207000
   0.87961400  0.80917500  0.53247100
   0.12387200  0.46545900  0.89821800
   0.58602200  0.88590600  0.72873100
   0.59061000  0.80737200  0.18279700
   0.50108600  0.79163800  0.41066200
   0.74165600  0.86327300  0.96434500
   0.50779600  0.14452000  0.94568100
   0.47242200  0.67500800  0.69071500
   0.96921500  0.09390070  0.23748800
   0.52925900  0.87294100  0.96110500
   0.27036500  0.87943200  0.43454300
   0.66874000  0.93223100  0.32683400
   0.32418500  0.12292200  0.58847400
   0.57216800  0.32913000  0.64585800
   0.13142400  0.53303100  0.57327000
   0.86358300  0.48759200  0.82511000
   0.38474800  0.64878800  0.91605100
   0.25745000  0.12742600  0.21206700
   0.04205830  0.30115900  0.10910300
   0.30566700  0.53571100  0.73663600
   0.67240700  0.76046300  0.53578700
   0.68016600  0.49789200  0.94406700
   0.20602800  0.66027600  0.29730900
   0.48688400  0.22548500  0.21445400
   0.35565600  0.79693900  0.23540700
   0.06380340  0.62705400  0.76601500
   0.39378900  0.57468200  0.23499200
   0.95854300  0.43630200  0.45848700
   0.99975600  0.37497100  0.67552500
   0.34320600  0.64915800  0.49597000
   0.03043220  0.25747700  0.88805400
   0.29127800  0.07017640  0.99982744
   0.50949400  0.10162100  0.69047800
   0.13763700  0.25687900  0.54291300
   0.66507700  0.23266800  0.07552510
   0.00536000  0.64064900  0.41076500
   0.13707700  0.96990900  0.61475900
   0.75547000  0.75326700  0.74491900
   0.64040800  0.29261500  0.85003300
   0.89807500  0.69178300  0.90653000
   0.36020400  0.99275500  0.81579500
   0.15675200  0.07705730  0.40704300
   0.44253500  0.01142510  0.15104800
   0.19125800  0.34393400  0.74665100
   0.28580300  0.78232700  0.76968500
   0.05387320  0.28771500  0.33939200
   0.59037600  0.97617900  0.52590800
   0.33767200  0.83869100  0.02469000
   0.98729420  0.10963800  0.60131000
   0.54419500  0.60699900  0.07713420
   0.49955500  0.46922400  0.81005600
   0.86697500  0.23295600  0.41867200
   0.86258900  0.08963570  0.04229220
   0.22850300  0.45708900  0.40521700
   0.98743100  0.82840300  0.72170100
   0.39530300  0.25986400  0.79588500
   0.77770300  0.38772100  0.58252500
   0.43554500  0.39998000  0.01658420
   0.26880900  0.27989400  0.98075500
   0.94847000  0.06836140  0.83883400
   0.89771000  0.61459500  0.62629300
   0.71276300  0.15639500  0.57232000
   0.97786080  0.88560100  0.99007700
   0.86096200  0.91270900  0.19758700
   0.82546500  0.97632700  0.69388000
   0.14793500  0.72528900  0.96837000
   0.37416500  0.36403800  0.58844700
   0.16691300  0.12971600  0.74599200
   0.51549500  0.52720400  0.54226300
   0.05218000  0.88227400  0.35366100
   0.27390500  0.36330500  0.20671700
   0.39763600  0.90314900  0.61795900
   0.59038000  0.43143400  0.18716200
   0.45530000  0.02760550  0.37304100
   0.83027800  0.26773500  0.77448200
   0.60433600  0.61533100  0.32088000
   0.85587500  0.52025500  0.22736200
   0.24143300  0.55180900  0.05721010
