BEGIN_CFG
 Size
    10
 Supercell
         6.902809      0.000000      0.000000
         0.000000      6.902809      0.000000
         0.000000      0.000000      6.902809
 AtomData:  id type       cartes_x      cartes_y      cartes_z           fx          fy          fz
             1    0       4.601870      2.300940      0.000000     0.576809   -2.912545   -2.962671
             2    0       0.000000      2.300940      4.601870    -0.799197   -0.244629    0.520521
             3    0       2.300940      0.000000      4.601870    -0.386712   -0.861030    0.467116
             4    0       0.000000      2.300940      2.300940     2.332872   -0.345222   -1.032845
             5    1       0.000000      0.000000      0.000000    -0.294801    1.364321   -0.314597
             6    1       4.601870      2.300940      2.300940    -1.810453   -0.022845    2.856410
             7    1       4.601870      4.601870      4.601870     0.225977   -0.599386   -3.053560
             8    1       2.300940      4.601870      2.300940    -0.143836    0.522407    3.081071
             9    1       2.300940      4.601870      0.000000    -3.984457   -0.371420   -3.152204
            10    1       4.601870      4.601870      0.000000     4.283008    3.475218    3.601508
 Energy
        -49.358446070000
 PlusStress:  xx          yy          zz          yz          xz          xy
        -7.60691   -10.62186    -2.94549     0.48310    -1.11575     4.03647
 Feature   EFS_by	VASP
END_CFG

BEGIN_CFG
 Size
    10
 Supercell
         6.902809      0.000000      0.000000
         0.000000      6.902809      0.000000
         0.000000      0.000000      6.902809
 AtomData:  id type       cartes_x      cartes_y      cartes_z           fx          fy          fz
             1    0       4.596180      2.304470      0.006230     0.549365   -2.899737   -3.072618
             2    0       0.005370      2.306730      4.597170    -0.795440   -0.245594    0.546261
             3    0       2.296570      0.003670      4.594820    -0.381147   -0.861289    0.467670
             4    0       6.902370      2.300890      2.302200     2.391507   -0.343503   -1.063510
             5    1       6.899860      6.898420      0.002720    -0.290901    1.376757   -0.307263
             6    1       4.607820      2.289620      2.297120    -1.852235   -0.032517    2.958984
             7    1       4.602900      4.600550      4.601570     0.227486   -0.596608   -2.987003
             8    1       2.303620      4.604060      2.297800    -0.167919    0.521998    3.177222
             9    1       2.301810      4.603510      0.002190    -4.032019   -0.369439   -3.228153
            10    1       4.597870      4.606060      0.005320     4.350403    3.460529    3.515834
 Energy
        -49.281030670000
 PlusStress:  xx          yy          zz          yz          xz          xy
        -7.55784   -10.92081    -2.67230     0.44133    -1.07775     4.07591
 Feature   EFS_by	VASP
END_CFG

BEGIN_CFG
 Size
    10
 Supercell
         6.902809      0.000000      0.000000
         0.000000      6.902809      0.000000
         0.000000      0.000000      6.902809
 AtomData:  id type       cartes_x      cartes_y      cartes_z           fx          fy          fz
             1    0       4.590570      2.307560      0.011990     0.534716   -2.876783   -3.171936
             2    0       0.010610      2.312480      4.592550    -0.797518   -0.250880    0.579154
             3    0       2.292150      0.007220      4.587830    -0.370149   -0.861362    0.473853
             4    0       6.902290      2.300790      2.303310     2.447823   -0.336866   -1.091098
             5    1       6.896890      6.894170      0.005400    -0.285689    1.397392   -0.303873
             6    1       4.613570      2.278300      2.293620    -1.901729   -0.042066    3.052054
             7    1       4.603950      4.599170      4.600950     0.220924   -0.599218   -2.902436
             8    1       2.306280      4.606300      2.295000    -0.188996    0.505342    3.268441
             9    1       2.302250      4.605110      0.004030    -4.067845   -0.374603   -3.295835
            10    1       4.594330      4.610610      0.011010     4.407112    3.409200    3.411860
 Energy
        -49.215909040000
 PlusStress:  xx          yy          zz          yz          xz          xy
        -7.55034   -11.25069    -2.88038     0.39085    -1.07526     4.11452
 Feature   EFS_by	VASP
END_CFG

BEGIN_CFG
 Size
    10
 Supercell
         6.902809      0.000000      0.000000
         0.000000      6.902809      0.000000
         0.000000      0.000000      6.902809
 AtomData:  id type       cartes_x      cartes_y      cartes_z           fx          fy          fz
             1    0       4.585040      2.310210      0.017270     0.509433   -2.841973   -3.265030
             2    0       0.015740      2.318200      4.588020    -0.794898   -0.249809    0.605684
             3    0       2.287670      0.010630      4.580920    -0.365036   -0.859440    0.471529
             4    0       6.902580      2.300640      2.304250     2.501025   -0.332726   -1.122864
             5    1       6.893880      6.890080      0.008050    -0.280290    1.411994   -0.295154
             6    1       4.619120      2.266970      2.290440    -1.924870   -0.059818    3.127447
             7    1       4.605020      4.597720      4.600030     0.215843   -0.596510   -2.809575
             8    1       2.308920      4.608590      2.292540    -0.207379    0.495584    3.352796
             9    1       2.302260      4.606670      0.005520    -4.083899   -0.374774   -3.368558
            10    1       4.591250      4.615520      0.017060     4.449777    3.363992    3.316918
 Energy
        -49.163764980000
 PlusStress:  xx          yy          zz          yz          xz          xy
        -7.32750   -11.32885    -2.75136     0.35958    -1.02348     4.19237
 Feature   EFS_by	VASP
END_CFG

BEGIN_CFG
 Size
    10
 Supercell
         6.902809      0.000000      0.000000
         0.000000      6.902809      0.000000
         0.000000      0.000000      6.902809
 AtomData:  id type       cartes_x      cartes_y      cartes_z           fx          fy          fz
             1    0       4.579590      2.312430      0.022060     0.480857   -2.794939   -3.343196
             2    0       0.020740      2.323870      4.583580    -0.788867   -0.245088    0.631184
             3    0       2.283140      0.013910      4.574080    -0.358661   -0.855617    0.462851
             4    0       0.000440      2.300440      2.305020     2.546871   -0.326059   -1.151011
             5    1       6.890840      6.886130      0.010670    -0.273716    1.425669   -0.288593
             6    1       4.624470      2.255640      2.287590    -1.956347   -0.067276    3.197258
             7    1       4.606110      4.596210      4.598810     0.205773   -0.587349   -2.720202
             8    1       2.311540      4.610940      2.290440    -0.235455    0.480766    3.434184
             9    1       2.301840      4.608190      0.006660    -4.109305   -0.372002   -3.413126
            10    1       4.588650      4.620790      0.023460     4.501524    3.298650    3.210205
 Energy
        -49.125165400000
 PlusStress:  xx          yy          zz          yz          xz          xy
        -6.74081   -11.06631    -2.29199     0.33140    -0.98672     4.24867
 Feature   EFS_by	VASP
END_CFG

BEGIN_CFG
 Size
    10
 Supercell
         6.902809      0.000000      0.000000
         0.000000      6.902809      0.000000
         0.000000      0.000000      6.902809
 AtomData:  id type       cartes_x      cartes_y      cartes_z           fx          fy          fz
             1    0       4.574210      2.314230      0.026330     0.450353   -2.735128   -3.413465
             2    0       0.025630      2.329520      4.579240    -0.779795   -0.236913    0.654116
             3    0       2.278550      0.017060      4.567310    -0.353671   -0.849863    0.453638
             4    0       0.001500      2.300190      2.305610     2.587901   -0.318780   -1.178273
             5    1       6.887780      6.882340      0.013260    -0.267668    1.444340   -0.281167
             6    1       4.629610      2.244300      2.285080    -1.979447   -0.091521    3.260091
             7    1       4.607230      4.594640      4.597300     0.198997   -0.580583   -2.612674
             8    1       2.314140      4.613340      2.288710    -0.260255    0.465208    3.486518
             9    1       2.300990      4.609670      0.007440    -4.102248   -0.377638   -3.464809
            10    1       4.586520      4.626400      0.030210     4.513764    3.224030    3.108519
 Energy
        -49.100486510000
 PlusStress:  xx          yy          zz          yz          xz          xy
        -6.62213   -11.24595    -2.25439     0.29987    -0.93021     4.30372
 Feature   EFS_by	VASP
END_CFG

BEGIN_CFG
 Size
    10
 Supercell
         6.902809      0.000000      0.000000
         0.000000      6.902809      0.000000
         0.000000      0.000000      6.902809
 AtomData:  id type       cartes_x      cartes_y      cartes_z           fx          fy          fz
             1    0       4.568900      2.315620      0.030090     0.419031   -2.667608   -3.471556
             2    0       0.030390      2.335120      4.574990    -0.776367   -0.229962    0.677112
             3    0       2.273910      0.020090      4.560600    -0.345388   -0.846565    0.445213
             4    0       0.002950      2.299900      2.306020     2.617814   -0.311155   -1.206477
             5    1       6.884680      6.878690      0.015820    -0.257322    1.458949   -0.274485
             6    1       4.634540      2.232950      2.282920    -1.991626   -0.100944    3.302576
             7    1       4.608370      4.593010      4.595510     0.187964   -0.568001   -2.504435
             8    1       2.316710      4.615790      2.287340    -0.285805    0.458810    3.542948
             9    1       2.299700      4.611120      0.007850    -4.096531   -0.370870   -3.501286
            10    1       4.584860      4.632370      0.037280     4.536845    3.135949    2.992174
 Energy
        -49.089812580000
 PlusStress:  xx          yy          zz          yz          xz          xy
        -6.61488   -11.45430    -2.32300     0.26549    -0.87569     4.35792
 Feature   EFS_by	VASP
END_CFG

BEGIN_CFG
 Size
    10
 Supercell
         6.902809      0.000000      0.000000
         0.000000      6.902809      0.000000
         0.000000      0.000000      6.902809
 AtomData:  id type       cartes_x      cartes_y      cartes_z           fx          fy          fz
             1    0       4.563650      2.316600      0.033330     0.385623   -2.587198   -3.521330
             2    0       0.035040      2.340700      4.570850    -0.767819   -0.222811    0.701733
             3    0       2.269210      0.022980      4.553960    -0.341935   -0.841358    0.434609
             4    0       0.004800      2.299550      2.306260     2.645229   -0.303323   -1.230281
             5    1       6.881560      6.875210      0.018350    -0.251462    1.479746   -0.266422
             6    1       4.639270      2.221590      2.281100    -1.999738   -0.117915    3.337450
             7    1       4.609520      4.591320      4.593460     0.180787   -0.555408   -2.392511
             8    1       2.319250      4.618290      2.286340    -0.311683    0.441119    3.580076
             9    1       2.297980      4.612520      0.007890    -4.070887   -0.380107   -3.529624
            10    1       4.583690      4.638660      0.044670     4.538143    3.040381    2.894302
 Energy
        -49.093149850000
 PlusStress:  xx          yy          zz          yz          xz          xy
        -6.60106   -11.74695    -2.44135     0.22142    -0.82324     4.39792
 Feature   EFS_by	VASP
END_CFG

BEGIN_CFG
 Size
    10
 Supercell
         6.902809      0.000000      0.000000
         0.000000      6.902809      0.000000
         0.000000      0.000000      6.902809
 AtomData:  id type       cartes_x      cartes_y      cartes_z           fx          fy          fz
             1    0       4.558460      2.317180      0.036020     0.353470   -2.506381   -3.549769
             2    0       0.039580      2.346240      4.566810    -0.764655   -0.212897    0.720143
             3    0       2.264470      0.025760      4.547390    -0.334915   -0.835137    0.420223
             4    0       0.007050      2.299170      2.306300     2.664761   -0.295919   -1.259798
             5    1       6.878410      6.871870      0.020850    -0.238993    1.497259   -0.260392
             6    1       4.643780      2.210220      2.279640    -1.997952   -0.142906    3.361377
             7    1       4.610700      4.589570      4.591150     0.167916   -0.538924   -2.288718
             8    1       2.321750      4.620830      2.285730    -0.338163    0.429921    3.619035
             9    1       2.295820      4.613890      0.007560    -4.051340   -0.372967   -3.545631
            10    1       4.583000      4.645270      0.052360     4.543780    2.934339    2.773981
 Energy
        -49.110316730000
 PlusStress:  xx          yy          zz          yz          xz          xy
        -6.25730   -11.62953    -2.32087     0.18481    -0.77397     4.47502
 Feature   EFS_by	VASP
END_CFG

BEGIN_CFG
 Size
    10
 Supercell
         6.902809      0.000000      0.000000
         0.000000      6.902809      0.000000
         0.000000      0.000000      6.902809
 AtomData:  id type       cartes_x      cartes_y      cartes_z           fx          fy          fz
             1    0       4.553320      2.317390      0.038180     0.318943   -2.407941   -3.577422
             2    0       0.043990      2.351750      4.562880    -0.752971   -0.199389    0.740799
             3    0       2.259670      0.028400      4.540880    -0.328302   -0.829843    0.408998
             4    0       0.009710      2.298730      2.306150     2.669132   -0.285018   -1.281726
             5    1       6.875240      6.868700      0.023330    -0.232444    1.515958   -0.251682
             6    1       4.648080      2.198830      2.278530    -1.997144   -0.163124    3.369403
             7    1       4.611900      4.587760      4.588610     0.157217   -0.523412   -2.155296
             8    1       2.324230      4.623420      2.285490    -0.364502    0.411673    3.624321
             9    1       2.293240      4.615210      0.006850    -3.977243   -0.384212   -3.550922
            10    1       4.582780      4.652200      0.060360     4.505437    2.807853    2.677624
 Energy
        -49.141120350000
 PlusStress:  xx          yy          zz          yz          xz          xy
        -6.56411   -12.14495    -2.73596     0.19012    -0.69612     4.49900
 Feature   EFS_by	VASP
END_CFG

BEGIN_CFG
 Size
    10
 Supercell
         6.902809      0.000000      0.000000
         0.000000      6.902809      0.000000
         0.000000      0.000000      6.902809
 AtomData:  id type       cartes_x      cartes_y      cartes_z           fx          fy          fz
             1    0       4.548230      2.317230      0.039800     0.285823   -2.313505   -3.583154
             2    0       0.048300      2.357230      4.559060    -0.746151   -0.184355    0.753614
             3    0       2.254810      0.030920      4.534430    -0.324319   -0.821835    0.394212
             4    0       0.012770      2.298260      2.305810     2.673120   -0.275176   -1.305651
             5    1       6.872030      6.865690      0.025780    -0.216928    1.538256   -0.244480
             6    1       4.652170      2.187410      2.277780    -1.984543   -0.176163    3.368140
             7    1       4.613110      4.585900      4.585830     0.143960   -0.504947   -2.061302
             8    1       2.326660      4.626060      2.285640    -0.391284    0.397264    3.643803
             9    1       2.290240      4.616500      0.005770    -3.944463   -0.379471   -3.547633
            10    1       4.583050      4.659430      0.068630     4.491107    2.683421    2.559139
 Energy
        -49.185066410000
 PlusStress:  xx          yy          zz          yz          xz          xy
        -6.44384   -12.22059    -2.88460     0.14015    -0.66450     4.55136
 Feature   EFS_by	VASP
END_CFG

BEGIN_CFG
 Size
    10
 Supercell
         6.902809      0.000000      0.000000
         0.000000      6.902809      0.000000
         0.000000      0.000000      6.902809
 AtomData:  id type       cartes_x      cartes_y      cartes_z           fx          fy          fz
             1    0       4.543180      2.316730      0.040880     0.253019   -2.200006   -3.582115
             2    0       0.052490      2.362690      4.555360    -0.733706   -0.169631    0.769996
             3    0       2.249910      0.033320      4.528040    -0.319816   -0.812040    0.380746
             4    0       0.016240      2.297740      2.305270     2.665134   -0.264857   -1.325052
             5    1       6.868810      6.862840      0.028200    -0.207665    1.557819   -0.237124
             6    1       4.656050      2.175980      2.277380    -1.971315   -0.197288    3.347606
             7    1       4.614330      4.583980      4.582830     0.130600   -0.482769   -1.922153
             8    1       2.329050      4.628740      2.286180    -0.418147    0.379224    3.630326
             9    1       2.286820      4.617750      0.004310    -3.844173   -0.387887   -3.533803
            10    1       4.583780      4.666950      0.077180     4.430956    2.536220    2.455894
 Energy
        -49.241630830000
 PlusStress:  xx          yy          zz          yz          xz          xy
        -6.65943   -12.58042    -3.37986     0.16519    -0.57515     4.57600
 Feature   EFS_by	VASP
END_CFG

BEGIN_CFG
 Size
    10
 Supercell
         6.902809      0.000000      0.000000
         0.000000      6.902809      0.000000
         0.000000      0.000000      6.902809
 AtomData:  id type       cartes_x      cartes_y      cartes_z           fx          fy          fz
             1    0       4.538170      2.315880      0.041410     0.222100   -2.097039   -3.562710
             2    0       0.056580      2.368120      4.551770    -0.725756   -0.154360    0.775026
             3    0       2.244960      0.035590      4.521710    -0.314903   -0.801190    0.368248
             4    0       0.020120      2.297180      2.304530     2.656416   -0.255027   -1.347410
             5    1       6.865560      6.860150      0.030600    -0.189475    1.582386   -0.231315
             6    1       4.659730      2.164530      2.277340    -1.947132   -0.212671    3.326166
             7    1       4.615580      4.582020      4.579640     0.117803   -0.458888   -1.830853
             8    1       2.331400      4.631460      2.287100    -0.445436    0.361332    3.627079
             9    1       2.282990      4.618960      0.002470    -3.799918   -0.383436   -3.509522
            10    1       4.584990      4.674730      0.086000     4.400397    2.395979    2.346315
 Energy
        -49.310115240000
 PlusStress:  xx          yy          zz          yz          xz          xy
        -6.34915   -12.44304    -3.40961     0.11248    -0.55416     4.63869
 Feature   EFS_by	VASP
END_CFG

BEGIN_CFG
 Size
    10
 Supercell
         6.902809      0.000000      0.000000
         0.000000      6.902809      0.000000
         0.000000      0.000000      6.902809
 AtomData:  id type       cartes_x      cartes_y      cartes_z           fx          fy          fz
             1    0       4.533190      2.314720      0.041400     0.192152   -1.972145   -3.535223
             2    0       0.060550      2.373540      4.548300    -0.711012   -0.142291    0.788788
             3    0       2.239960      0.037740      4.515430    -0.311109   -0.789574    0.360372
             4    0       0.024400      2.296590      2.303590     2.636598   -0.245352   -1.361724
             5    1       6.862300      6.857630      0.032980    -0.179702    1.601240   -0.224197
             6    1       4.663200      2.153040      2.277650    -1.918513   -0.227585    3.277606
             7    1       4.616830      4.580000      4.576240     0.102222   -0.429545   -1.691286
             8    1       2.333700      4.634220      2.288400    -0.472950    0.344745    3.594073
             9    1       2.278760      4.620120      0.000270    -3.683431   -0.385985   -3.478904
            10    1       4.586670      4.682770      0.095060     4.323266    2.236708    2.249057
 Energy
        -49.389784400000
 PlusStress:  xx          yy          zz          yz          xz          xy
        -7.08371   -13.30077    -4.21290     0.15091    -0.44558     4.62680
 Feature   EFS_by	VASP
END_CFG

BEGIN_CFG
 Size
    10
 Supercell
         6.902809      0.000000      0.000000
         0.000000      6.902809      0.000000
         0.000000      0.000000      6.902809
 AtomData:  id type       cartes_x      cartes_y      cartes_z           fx          fy          fz
             1    0       4.528240      2.313270      0.040850     0.164373   -1.859056   -3.492679
             2    0       0.064420      2.378930      4.544950    -0.704029   -0.129938    0.789899
             3    0       2.234910      0.039780      4.509200    -0.305095   -0.776287    0.353192
             4    0       0.029080      2.295950      2.302440     2.618010   -0.236283   -1.379051
             5    1       6.859010      6.855280      0.035340    -0.159760    1.629082   -0.216261
             6    1       4.666460      2.141530      2.278300    -1.883750   -0.242922    3.232177
             7    1       4.618100      4.577940      4.572670     0.086212   -0.403792   -1.596425
             8    1       2.335960      4.637020      2.290090    -0.500035    0.323769    3.564816
             9    1       2.274130      4.621250      6.900500    -3.612951   -0.384225   -3.435752
            10    1       4.588800      4.691050      0.104360     4.273886    2.082467    2.145653
 Energy
        -49.479632780000
 PlusStress:  xx          yy          zz          yz          xz          xy
        -6.84275   -13.16591    -4.32504     0.10436    -0.41702     4.67611
 Feature   EFS_by	VASP
END_CFG

BEGIN_CFG
 Size
    10
 Supercell
         6.902809      0.000000      0.000000
         0.000000      6.902809      0.000000
         0.000000      0.000000      6.902809
 AtomData:  id type       cartes_x      cartes_y      cartes_z           fx          fy          fz
             1    0       4.523310      2.311520      0.039770     0.139982   -1.732395   -3.441301
             2    0       0.068180      2.384300      4.541710    -0.693137   -0.120402    0.799155
             3    0       2.229810      0.041700      4.503020    -0.298754   -0.762946    0.347545
             4    0       0.034160      2.295290      2.301080     2.585199   -0.226669   -1.390307
             5    1       6.855700      6.853100      0.037670    -0.147659    1.650233   -0.208516
             6    1       4.669530      2.130000      2.279300    -1.847654   -0.257099    3.162529
             7    1       4.619370      4.575830      4.568930     0.067259   -0.369683   -1.468566
             8    1       2.338160      4.639860      2.292150    -0.523158    0.304690    3.515284
             9    1       2.269130      4.622340      6.897570    -3.492400   -0.384983   -3.388211
            10    1       4.591380      4.699560      0.113900     4.187039    1.911544    2.051136
 Energy
        -49.578757170000
 PlusStress:  xx          yy          zz          yz          xz          xy
        -7.42988   -13.85894    -5.16643     0.14652    -0.32885     4.66543
 Feature   EFS_by	VASP
END_CFG

BEGIN_CFG
 Size
    10
 Supercell
         6.902809      0.000000      0.000000
         0.000000      6.902809      0.000000
         0.000000      0.000000      6.902809
 AtomData:  id type       cartes_x      cartes_y      cartes_z           fx          fy          fz
             1    0       4.518400      2.309520      0.038170     0.117897   -1.621195   -3.377046
             2    0       0.071840      2.389660      4.538600    -0.689741   -0.112610    0.797572
             3    0       2.224670      0.043500      4.496900    -0.287945   -0.749370    0.344361
             4    0       0.039630      2.294580      2.299500     2.554667   -0.217528   -1.402732
             5    1       6.852380      6.851100      0.039980    -0.127218    1.680279   -0.201731
             6    1       4.672410      2.118430      2.280640    -1.805455   -0.268135    3.097147
             7    1       4.620660      4.573690      4.565030     0.047522   -0.340777   -1.377719
             8    1       2.340310      4.642720      2.294590    -0.545709    0.279345    3.468653
             9    1       2.263750      4.623380      6.894270    -3.407790   -0.386911   -3.330751
            10    1       4.594410      4.708260      0.123650     4.115976    1.743784    1.955187
 Energy
        -49.686082660000
 PlusStress:  xx          yy          zz          yz          xz          xy
        -7.10382   -13.61836    -5.34106     0.10599    -0.29826     4.69882
 Feature   EFS_by	VASP
END_CFG

BEGIN_CFG
 Size
    10
 Supercell
         6.902809      0.000000      0.000000
         0.000000      6.902809      0.000000
         0.000000      0.000000      6.902809
 AtomData:  id type       cartes_x      cartes_y      cartes_z           fx          fy          fz
             1    0       4.513510      2.307260      0.036060     0.098818   -1.489203   -3.305567
             2    0       0.075390      2.395000      4.535610    -0.681423   -0.108678    0.802570
             3    0       2.219480      0.045190      4.490830    -0.277932   -0.735185    0.340712
             4    0       0.045500      2.293840      2.297720     2.512160   -0.206466   -1.409581
             5    1       6.849050      6.849270      0.042270    -0.113617    1.704317   -0.194496
             6    1       4.675100      2.106830      2.282300    -1.760972   -0.276909    3.004848
             7    1       4.621950      4.571510      4.560980     0.025656   -0.302311   -1.252136
             8    1       2.342400      4.645620      2.297390    -0.566754    0.256891    3.406067
             9    1       2.258010      4.624390      6.890620    -3.273384   -0.389824   -3.272476
            10    1       4.597880      4.717160      0.133620     4.019769    1.558825    1.871246
 Energy
        -49.800607480000
 PlusStress:  xx          yy          zz          yz          xz          xy
        -7.68357   -14.26513    -6.20242     0.15483    -0.19808     4.67415
 Feature   EFS_by	VASP
END_CFG

BEGIN_CFG
 Size
    10
 Supercell
         6.902809      0.000000      0.000000
         0.000000      6.902809      0.000000
         0.000000      0.000000      6.902809
 AtomData:  id type       cartes_x      cartes_y      cartes_z           fx          fy          fz
             1    0       4.508630      2.304780      0.033450     0.080297   -1.382110   -3.226443
             2    0       0.078850      2.400320      4.532740    -0.678370   -0.104270    0.799734
             3    0       2.214250      0.046760      4.484800    -0.266465   -0.722558    0.340107
             4    0       0.051750      2.293080      2.295720     2.466512   -0.197901   -1.417856
             5    1       6.845700      6.847620      0.044540    -0.089122    1.731795   -0.189657
             6    1       4.677600      2.095200      2.284280    -1.706188   -0.287648    2.924765
             7    1       4.623240      4.569290      4.556810     0.008240   -0.266256   -1.164863
             8    1       2.344430      4.648540      2.300550    -0.590252    0.233076    3.341998
             9    1       2.251930      4.625350      6.886630    -3.192656   -0.386365   -3.207496
            10    1       4.601770      4.726220      0.143780     3.952067    1.394524    1.779960
 Energy
        -49.921242090000
 PlusStress:  xx          yy          zz          yz          xz          xy
        -7.72276   -14.37717    -6.55002     0.11227    -0.14999     4.70940
 Feature   EFS_by	VASP
END_CFG

BEGIN_CFG
 Size
    10
 Supercell
         6.902809      0.000000      0.000000
         0.000000      6.902809      0.000000
         0.000000      0.000000      6.902809
 AtomData:  id type       cartes_x      cartes_y      cartes_z           fx          fy          fz
             1    0       4.503770      2.302090      0.030340     0.067087   -1.250867   -3.138982
             2    0       0.082200      2.405630      4.529990    -0.671004   -0.104718    0.800651
             3    0       2.208980      0.048230      4.478830    -0.254326   -0.708434    0.335755
             4    0       0.058370      2.292280      2.293500     2.414748   -0.188251   -1.417944
             5    1       6.842340      6.846150      0.046790    -0.076484    1.754791   -0.182967
             6    1       4.679920      2.083530      2.286570    -1.653899   -0.298487    2.819399
             7    1       4.624530      4.567050      4.552510    -0.013954   -0.221812   -1.047841
             8    1       2.346400      4.651490      2.304070    -0.607376    0.208681    3.265511
             9    1       2.245510      4.626280      6.882290    -3.056088   -0.387506   -3.138736
            10    1       4.606080      4.735430      0.154130     3.850989    1.209283    1.706325
 Energy
        -50.047015300000
 PlusStress:  xx          yy          zz          yz          xz          xy
        -8.37866   -15.08569    -7.45914     0.15953    -0.03945     4.67255
 Feature   EFS_by	VASP
END_CFG

BEGIN_CFG
 Size
    10
 Supercell
         6.902809      0.000000      0.000000
         0.000000      6.902809      0.000000
         0.000000      0.000000      6.902809