BEGIN_CFG
 Size
    100
 Supercell
        10.211495      0.000000      0.000000
         0.000000     10.211495      0.000000
         0.000000      0.000000     10.211495
 AtomData:  id type       cartes_x      cartes_y      cartes_z           fx          fy          fz
             1    0       8.407040      7.847710      0.943670    -0.033493   -0.384496    0.035454
             2    0       8.338110      9.190330      9.254130    -0.688582    0.350645    0.417222
             3    0       7.086850      1.431300      4.295300    -0.354072    0.461310   -1.404417
             4    0       8.049290      2.248560      8.743160    -0.757912   -0.989703   -0.290301
             5    0       3.128310     10.118200      4.132570     0.723389    0.792961   -0.041581
             6    0       6.247800      8.163780      8.651880    -0.511134   -0.458771   -0.461562
             7    0       5.065670      5.904560      4.484050     0.453171   -0.223006    0.304634
             8    0       5.123270      5.576620      2.204700    -1.020884   -0.976351   -0.416503
             9    0       5.625180      9.841490      2.847430    -1.083535    0.683131   -0.875884
            10    0       0.122640      0.018340      8.970060    -0.849722    1.225080   -0.032113
            11    0       1.903840      1.944850      4.517560     1.073050    0.397321    0.373531
            12    0       8.288060      4.269490      4.241600     1.363743    0.030715   -0.140321
            13    0       9.963960      2.246680      7.916760     1.721651    1.257630    0.140928
            14    0       7.871070      3.252260      6.456910     0.114624    0.513398    0.280605
            15    0       9.101440      1.873050      5.333200     1.134598    1.238035   -0.946694
            16    0       0.832000     10.153090      4.367700    -0.822063    0.213018   -1.386903
            17    0       0.515510      0.825870      6.408910     0.366183   -1.541108    0.295932
            18    0       1.852690      2.710800     10.024250    -0.446263    1.021199    0.915645
            19    0       4.480590      2.014610      3.712000    -0.539914    0.429253   -0.100984
            20    0       6.177880      7.473190      3.062170     0.550462    1.029494   -0.027445
            21    0       5.839760      7.039340      0.476390    -0.406793   -0.527748    0.511542
            22    0      10.203080      3.969070      6.294900    -1.864620    1.003992   -0.186881
            23    0       6.297600      2.545200     10.191000    -0.288023    0.294534    0.130089
            24    0       3.277840      6.686740      3.207300    -0.814536   -2.136631   -1.203363
            25    0       9.144290      0.795730      3.250530     0.225386   -0.206652    0.243934
            26    0       0.214450      3.833910      1.307830     0.807753   -0.551273    0.904301
            27    0       1.827880      0.468420      0.265590     0.825959   -0.563038    0.411693
            28    0       0.424140      3.615780      3.916540    -1.512799   -0.696649    0.294170
            29    0       2.981500      4.477830      0.754760    -0.642150   -0.616722    0.663376
            30    0       6.483820      0.741600      8.679390    -0.254678   -1.501944    1.643274
            31    0       6.852510      9.169760      4.660090    -0.234987   -0.089936   -0.361469
            32    0       1.865810      1.343470      8.300050     1.022269   -0.091153    0.070505
            33    0       2.317270      8.370720      0.499670    -0.911746    0.899537   -0.488774
            34    0       0.962040      5.961920      4.394910     0.211254    0.089093    0.743578
            35    0       2.408760      3.049920      2.512380     1.026901    1.170601   -0.127486
            36    0       0.179260      8.166710      9.995710    -1.515559    0.375736   -0.211637
            37    0       4.191040      8.327640      1.973740     0.045156    1.202575   -1.094701
            38    0       7.515860      5.962500      2.239690    -0.279716    0.910276   -0.076305
            39    0       0.995670      1.342050      2.396400    -1.314979    0.949587   -0.329442
            40    0       4.974070      0.543880      0.666290    -0.487327   -0.108955   -1.895994
            41    0       7.949600      6.652790      9.282820    -1.296297    0.224975    1.000816
            42    0       4.272540      5.070610      6.588630     1.248813    0.153031   -0.194200
            43    0       9.931820      9.738360      1.461290     0.763546   -0.917442   -1.206124
            44    0       9.112330      5.975060      5.836300    -0.041902   -1.890135    0.960585
            45    0       4.647480      2.902750      5.821260    -1.143134   -0.556633    1.049972
            46    0       2.109590      4.926200      6.131850     0.010706   -1.225169    0.206735
            47    0       8.814230      2.655980      2.271130    -0.092846    1.078236    0.350266
            48    0       6.496900      1.488120      6.421820    -0.692583    1.188620    0.661117
            49    0       4.270120      0.750200      8.338220     0.266878    0.023282    1.326457
            50    0       8.095160      0.762000      0.639070    -0.846204    0.017760   -0.808026
            51    0       3.718590      3.031350      7.998470    -0.730111   -0.855812   -1.224895
            52    0       1.508860      5.140990      2.454410     2.113964    1.196330   -1.082030
            53    0       2.544050      9.475850      8.465460    -1.301847   -1.003511    1.319996
            54    0       9.883800      6.274010      8.322630     0.534154   -0.835209   -0.073654
            55    0       4.849010      3.310260      1.822760    -1.484936    0.275185    0.737547
            56    0       0.249580      8.562650      7.537910    -1.300294    0.919807    0.081279
            57    0       0.966730      6.641750      6.513790     0.030430    0.316188    0.468363
            58    0       7.631540      7.171910      4.887080     0.611380   -1.015319   -1.821603
            59    0       1.176540      6.227620      0.153350     1.259597   -1.428143    0.504998
            60    0       6.351420      9.573830      6.858070     0.737551   -0.958426   -0.199694
            61    0       6.314810      9.159220      0.576480     2.882638    0.003721    0.677996
            62    0       3.263480      0.957350      6.328970     0.967038    0.632969   -0.892584
            63    0       6.669420      5.113700      5.938380     0.859352    0.517707    0.320935
            64    0       1.124900      7.434410      2.355110    -0.412548   -1.116631   -1.160205
            65    0       4.631500      4.718210      9.412310     0.126268   -1.105872    0.106743
            66    0       1.919010      9.472210      2.380550     0.737107    0.263927   -0.107403
            67    0       9.523290      5.887490      2.920940     0.776084   -1.804337    0.610511
            68    0       1.793340      2.763720      6.640920     1.033094    0.700642   -0.571275
            69    0       8.263200      4.586470      8.167210     1.379784    0.120437    0.024239
            70    0       8.166390      7.860230      7.380160     0.846710   -0.019463   -2.561463
            71    0       5.945090      3.134290      7.960170     0.622699    1.070402   -0.421509
            72    0       2.488140      4.806270      8.447810    -1.374769    1.209342    0.418775
            73    0       1.998460      7.193750      8.344480     0.518732   -0.292579    1.654625
            74    0       5.931300      7.310740      6.310790    -0.731631   -0.143544    0.507031
            75    0       6.561900      4.964940      0.236350     0.891200   -0.873387   -0.285882
            76    0       4.425140      8.195470      4.427830     0.722120    0.826292    0.981439
            77    0       4.274550      8.623320      9.652090     0.452069    0.980539   -0.283335
            78    0       3.193980      4.529650      4.288720     0.832579   -1.041543   -1.127481
            79    0       9.262170      5.637560      0.621670    -0.338147    1.382919    0.649577
            80    0       6.328750      5.698790      8.068900    -1.286058    0.695818    0.105155
            81    0       6.076220      3.690640      4.290860    -0.820410   -0.323279   -0.816459
            82    0       1.994620      8.090290      4.400390     0.004691   -0.495991   -0.577473
            83    0       8.442970      0.193950      7.318830     1.465850    0.775813    0.283328
            84    0       3.259020      7.196400      6.133820    -0.602843   -1.376613   -0.044528
            85    0       3.958570      2.343090     10.118430     0.896951    0.000295    0.484504
            86    0       6.508810      1.645640      2.053330     0.554352   -1.004624    1.223546
            87    0       3.516140      6.551910      0.429620     1.442858   -0.096740    0.474414
            88    0       8.884230      9.842140      5.119480    -1.571327    0.137258    1.100683
            89    0       4.154480      6.628270      8.296560     1.331321    1.082579   -0.165636
            90    0       7.822730      9.412280      2.432600    -1.977535    0.942608    0.154505
            91    0       5.112560      0.227710      5.040230    -0.341535    0.621626    1.693336
            92    0       6.984320      3.872780      2.284040     0.335079   -0.503270   -0.548551
            93    0       4.335940      8.817380      7.138130    -1.049502    1.016851    0.507167
            94    0       8.399810      3.662810      0.114070    -0.004913   -0.072835    1.163169
            95    0       9.329870      8.044980      3.176500     0.157540    0.231042    0.680716
            96    0      10.029980      1.807980      0.330170    -0.202233   -0.713453   -1.057335
            97    0       0.401890      4.190490      9.262390    -0.992243    0.532419   -2.203841
            98    0      10.131640      8.144190      5.297460    -0.765700   -1.227584    0.096096
            99    0       2.005210      9.313240      6.258230     0.695150   -0.552526    0.442001
           100    0       3.386870      1.043840      1.966180    -0.736801   -0.563531    0.126904
 Energy
       -412.212079770000
 PlusStress:  xx          yy          zz          yz          xz          xy
       466.55073   465.38190   437.44334    23.17837    -6.80998   -24.10757
 Feature   EFS_by	VASP
END_CFG

