 100 100   0   0
  0.1064800E+02  0.1021150E-08  0.1021150E-08  0.1021150E-08  0.5000000E-15
  1.000000000000000E-004
  CAR 
 unknown system                          
     21.58888273     -4.24796845  301     14.69704114      1.00000000
     -4.248  0.0000E+00  0.0000E+00  0.0000E+00  0.0000E+00
     -4.162  0.0000E+00  0.0000E+00  0.0000E+00  0.0000E+00
     -4.076  0.0000E+00  0.0000E+00  0.0000E+00  0.0000E+00
     -3.990  0.0000E+00  0.0000E+00  0.0000E+00  0.0000E+00
     -3.903  0.0000E+00  0.0000E+00  0.0000E+00  0.0000E+00
     -3.817  0.0000E+00  0.0000E+00  0.0000E+00  0.0000E+00
     -3.731  0.0000E+00  0.0000E+00  0.0000E+00  0.0000E+00
     -3.645  0.0000E+00  0.0000E+00  0.0000E+00  0.0000E+00
     -3.559  0.0000E+00  0.0000E+00  0.0000E+00  0.0000E+00
     -3.473  0.0000E+00  0.0000E+00  0.0000E+00  0.0000E+00
     -3.387  0.0000E+00  0.0000E+00  0.0000E+00  0.0000E+00
     -3.301  0.7810E-09  0.7200E-09  0.6726E-10  0.6200E-10
     -3.214  0.3900E-03  0.3702E-03  0.3359E-04  0.3188E-04
     -3.128  0.7027E+00  0.6857E+00  0.6055E-01  0.5909E-01
     -3.042  0.8727E+01  0.8705E+01  0.8121E+00  0.8088E+00
     -2.956  0.2176E+01  0.2215E+01  0.9996E+00  0.9995E+00
     -2.870  0.5194E-02  0.5429E-02  0.1000E+01  0.1000E+01
     -2.784  0.4952E-07  0.5328E-07  0.1000E+01  0.1000E+01
     -2.698  0.1289E-14  0.2578E-14  0.1000E+01  0.1000E+01
     -2.612  0.0000E+00  0.0000E+00  0.1000E+01  0.1000E+01
     -2.526  0.0000E+00  0.0000E+00  0.1000E+01  0.1000E+01
     -2.439  0.0000E+00  0.0000E+00  0.1000E+01  0.1000E+01
     -2.353  0.0000E+00  0.0000E+00  0.1000E+01  0.1000E+01
     -2.267  0.0000E+00  0.0000E+00  0.1000E+01  0.1000E+01
     -2.181  0.2417E-08  0.2238E-08  0.1000E+01  0.1000E+01
     -2.095  0.8007E-03  0.7627E-03  0.1000E+01  0.1000E+01
     -2.009  0.9794E+00  0.9580E+00  0.1084E+01  0.1083E+01
     -1.923  0.8959E+01  0.8948E+01  0.1856E+01  0.1853E+01
     -1.837  0.4037E+01  0.4026E+01  0.2204E+01  0.2200E+01
     -1.750  0.1228E+02  0.1225E+02  0.3261E+01  0.3255E+01
     -1.664  0.1729E+02  0.1731E+02  0.4751E+01  0.4746E+01
     -1.578  0.3566E+01  0.3607E+01  0.5058E+01  0.5057E+01
     -1.492  0.1167E+02  0.1160E+02  0.6063E+01  0.6055E+01
     -1.406  0.1045E+02  0.1052E+02  0.6962E+01  0.6961E+01
     -1.320  0.4370E+00  0.4501E+00  0.7000E+01  0.7000E+01
     -1.234  0.1416E-03  0.1503E-03  0.7000E+01  0.7000E+01
     -1.148  0.1628E-09  0.1785E-09  0.7000E+01  0.7000E+01
     -1.061  0.0000E+00  0.0000E+00  0.7000E+01  0.7000E+01
     -0.975  0.0000E+00  0.0000E+00  0.7000E+01  0.7000E+01
     -0.889  0.1452E-10  0.1336E-10  0.7000E+01  0.7000E+01
     -0.803  0.2868E-04  0.2713E-04  0.7000E+01  0.7000E+01
     -0.717  0.1920E+00  0.1865E+00  0.7017E+01  0.7016E+01
     -0.631  0.7450E+01  0.7393E+01  0.7658E+01  0.7653E+01
     -0.545  0.1757E+02  0.1752E+02  0.9172E+01  0.9162E+01
     -0.459  0.2034E+02  0.2040E+02  0.1092E+02  0.1092E+02
     -0.372  0.1330E+02  0.1325E+02  0.1207E+02  0.1206E+02
     -0.286  0.1900E+02  0.1902E+02  0.1370E+02  0.1370E+02
     -0.200  0.1551E+02  0.1551E+02  0.1504E+02  0.1503E+02
     -0.114  0.1360E+02  0.1362E+02  0.1621E+02  0.1621E+02
     -0.028  0.1695E+02  0.1696E+02  0.1767E+02  0.1767E+02
      0.058  0.3800E+01  0.3863E+01  0.1800E+02  0.1800E+02
      0.144  0.1136E+01  0.1113E+01  0.1810E+02  0.1809E+02
      0.230  0.9001E+01  0.8995E+01  0.1887E+02  0.1887E+02
      0.317  0.1487E+01  0.1515E+01  0.1900E+02  0.1900E+02
      0.403  0.2066E-02  0.2161E-02  0.1900E+02  0.1900E+02
      0.489  0.1099E-07  0.1181E-07  0.1900E+02  0.1900E+02
      0.575  0.1827E-08  0.1697E-08  0.1900E+02  0.1900E+02
      0.661  0.6708E-03  0.6401E-03  0.1900E+02  0.1900E+02
      0.747  0.9039E+00  0.8847E+00  0.1908E+02  0.1908E+02
      0.833  0.9578E+01  0.9549E+01  0.1990E+02  0.1990E+02
      0.919  0.1317E+02  0.1313E+02  0.2104E+02  0.2103E+02
      1.006  0.1355E+02  0.1357E+02  0.2220E+02  0.2220E+02
      1.092  0.9604E+01  0.9630E+01  0.2303E+02  0.2303E+02
      1.178  0.1604E+02  0.1598E+02  0.2441E+02  0.2440E+02
      1.264  0.8580E+01  0.8640E+01  0.2515E+02  0.2515E+02
      1.350  0.9094E+01  0.9104E+01  0.2593E+02  0.2593E+02
      1.436  0.7424E+01  0.7390E+01  0.2657E+02  0.2657E+02
      1.522  0.4895E+01  0.4953E+01  0.2700E+02  0.2700E+02
      1.608  0.5063E-01  0.5261E-01  0.2700E+02  0.2700E+02
      1.695  0.2450E-05  0.2624E-05  0.2700E+02  0.2700E+02
      1.781  0.3867E-12  0.4267E-12  0.2700E+02  0.2700E+02
      1.867  0.0000E+00  0.0000E+00  0.2700E+02  0.2700E+02
      1.953  0.0000E+00  0.0000E+00  0.2700E+02  0.2700E+02
      2.039  0.8232E-09  0.7652E-09  0.2700E+02  0.2700E+02
      2.125  0.4681E-03  0.4463E-03  0.2700E+02  0.2700E+02
      2.211  0.1040E+01  0.1016E+01  0.2709E+02  0.2709E+02
      2.297  0.1782E+02  0.1773E+02  0.2862E+02  0.2861E+02
      2.383  0.1716E+02  0.1720E+02  0.3010E+02  0.3010E+02
      2.470  0.1074E+02  0.1078E+02  0.3103E+02  0.3102E+02
      2.556  0.1044E+02  0.1042E+02  0.3193E+02  0.3192E+02
      2.642  0.1084E+02  0.1088E+02  0.3286E+02  0.3286E+02
      2.728  0.1615E+01  0.1646E+01  0.3300E+02  0.3300E+02
      2.814  0.2499E-02  0.2613E-02  0.3300E+02  0.3300E+02
      2.900  0.1495E-07  0.1608E-07  0.3300E+02  0.3300E+02
      2.986  0.1109E-12  0.9991E-13  0.3300E+02  0.3300E+02
      3.072  0.1036E-05  0.9653E-06  0.3300E+02  0.3300E+02
      3.159  0.3145E-01  0.3020E-01  0.3300E+02  0.3300E+02
      3.245  0.4864E+01  0.4792E+01  0.3342E+02  0.3342E+02
      3.331  0.1866E+02  0.1863E+02  0.3503E+02  0.3502E+02
      3.417  0.2345E+02  0.2341E+02  0.3705E+02  0.3704E+02
      3.503  0.2572E+02  0.2574E+02  0.3926E+02  0.3925E+02
      3.589  0.2614E+02  0.2612E+02  0.4151E+02  0.4150E+02
      3.675  0.2381E+02  0.2383E+02  0.4356E+02  0.4355E+02
      3.761  0.2105E+02  0.2106E+02  0.4538E+02  0.4537E+02
      3.848  0.2427E+02  0.2421E+02  0.4747E+02  0.4745E+02
      3.934  0.2808E+02  0.2817E+02  0.4989E+02  0.4988E+02
      4.020  0.1728E+02  0.1724E+02  0.5137E+02  0.5136E+02
      4.106  0.1839E+02  0.1845E+02  0.5296E+02  0.5295E+02
      4.192  0.1247E+02  0.1245E+02  0.5403E+02  0.5403E+02
      4.278  0.2346E+02  0.2340E+02  0.5605E+02  0.5604E+02
      4.364  0.1088E+02  0.1100E+02  0.5699E+02  0.5699E+02
      4.450  0.1335E+00  0.1380E+00  0.5700E+02  0.5700E+02
      4.537  0.2006E+00  0.1939E+00  0.5702E+02  0.5702E+02
      4.623  0.7171E+01  0.7114E+01  0.5763E+02  0.5763E+02
      4.709  0.1098E+02  0.1097E+02  0.5858E+02  0.5857E+02
      4.795  0.1908E+02  0.1904E+02  0.6022E+02  0.6021E+02
      4.881  0.2644E+02  0.2643E+02  0.6250E+02  0.6249E+02
      4.967  0.2327E+02  0.2330E+02  0.6450E+02  0.6450E+02
      5.053  0.1446E+02  0.1445E+02  0.6575E+02  0.6574E+02
      5.139  0.2075E+02  0.2075E+02  0.6754E+02  0.6753E+02
      5.226  0.1901E+02  0.1899E+02  0.6917E+02  0.6916E+02
      5.312  0.2531E+02  0.2527E+02  0.7135E+02  0.7134E+02
      5.398  0.3156E+02  0.3158E+02  0.7407E+02  0.7406E+02
      5.484  0.1812E+02  0.1816E+02  0.7563E+02  0.7562E+02
      5.570  0.1508E+02  0.1513E+02  0.7693E+02  0.7693E+02
      5.656  0.1529E+02  0.1524E+02  0.7825E+02  0.7824E+02
      5.742  0.1567E+02  0.1570E+02  0.7960E+02  0.7959E+02
      5.828  0.4642E+01  0.4702E+01  0.8000E+02  0.8000E+02
      5.915  0.5186E+00  0.5084E+00  0.8004E+02  0.8004E+02
      6.001  0.8324E+01  0.8294E+01  0.8076E+02  0.8075E+02
      6.087  0.2798E+01  0.2839E+01  0.8100E+02  0.8100E+02
      6.173  0.9927E-02  0.1032E-01  0.8100E+02  0.8100E+02
      6.259  0.1459E-06  0.1558E-06  0.8100E+02  0.8100E+02
      6.345  0.6446E-14  0.7735E-14  0.8100E+02  0.8100E+02
      6.431  0.0000E+00  0.0000E+00  0.8100E+02  0.8100E+02
      6.517  0.0000E+00  0.0000E+00  0.8100E+02  0.8100E+02
      6.604  0.0000E+00  0.0000E+00  0.8100E+02  0.8100E+02
      6.690  0.0000E+00  0.0000E+00  0.8100E+02  0.8100E+02
      6.776  0.0000E+00  0.0000E+00  0.8100E+02  0.8100E+02
      6.862  0.0000E+00  0.0000E+00  0.8100E+02  0.8100E+02
      6.948  0.0000E+00  0.0000E+00  0.8100E+02  0.8100E+02
      7.034  0.1829E-10  0.1669E-10  0.8100E+02  0.8100E+02
      7.120  0.3346E-04  0.3148E-04  0.8100E+02  0.8100E+02
      7.206  0.2082E+00  0.2017E+00  0.8102E+02  0.8102E+02
      7.292  0.7862E+01  0.7793E+01  0.8170E+02  0.8169E+02
      7.379  0.1973E+02  0.1971E+02  0.8339E+02  0.8339E+02
      7.465  0.1022E+02  0.1025E+02  0.8427E+02  0.8427E+02
      7.551  0.2014E+02  0.2012E+02  0.8601E+02  0.8600E+02
      7.637  0.1702E+02  0.1700E+02  0.8747E+02  0.8747E+02
      7.723  0.1684E+02  0.1688E+02  0.8892E+02  0.8892E+02
      7.809  0.1912E+02  0.1903E+02  0.9057E+02  0.9056E+02
      7.895  0.2266E+02  0.2272E+02  0.9252E+02  0.9251E+02
      7.981  0.5503E+01  0.5584E+01  0.9300E+02  0.9300E+02
      8.068  0.4910E-01  0.5129E-01  0.9300E+02  0.9300E+02
      8.154  0.1419E-01  0.1352E-01  0.9300E+02  0.9300E+02
      8.240  0.3329E+01  0.3269E+01  0.9329E+02  0.9328E+02
      8.326  0.1461E+02  0.1460E+02  0.9455E+02  0.9454E+02
      8.412  0.1438E+02  0.1434E+02  0.9578E+02  0.9577E+02
      8.498  0.2635E+02  0.2631E+02  0.9805E+02  0.9804E+02
      8.584  0.2010E+02  0.2019E+02  0.9978E+02  0.9978E+02
      8.670  0.9932E+01  0.9887E+01  0.1006E+03  0.1006E+03
      8.757  0.2188E+02  0.2189E+02  0.1025E+03  0.1025E+03
      8.843  0.1792E+02  0.1789E+02  0.1041E+03  0.1041E+03
      8.929  0.2590E+02  0.2589E+02  0.1063E+03  0.1063E+03
      9.015  0.2025E+02  0.2028E+02  0.1080E+03  0.1080E+03
      9.101  0.2389E+02  0.2386E+02  0.1101E+03  0.1101E+03
      9.187  0.2027E+02  0.2032E+02  0.1118E+03  0.1118E+03
      9.273  0.2075E+02  0.2075E+02  0.1136E+03  0.1136E+03
      9.359  0.1618E+02  0.1614E+02  0.1150E+03  0.1150E+03
      9.446  0.2609E+02  0.2608E+02  0.1173E+03  0.1173E+03
      9.532  0.2513E+02  0.2516E+02  0.1194E+03  0.1194E+03
      9.618  0.1471E+02  0.1476E+02  0.1207E+03  0.1207E+03
      9.704  0.7888E+01  0.7877E+01  0.1214E+03  0.1214E+03
      9.790  0.1332E+02  0.1332E+02  0.1225E+03  0.1225E+03
      9.876  0.5846E+01  0.5893E+01  0.1230E+03  0.1230E+03
      9.962  0.1511E+02  0.1497E+02  0.1243E+03  0.1243E+03
     10.048  0.1964E+02  0.1973E+02  0.1260E+03  0.1260E+03
     10.135  0.1389E+02  0.1387E+02  0.1272E+03  0.1272E+03
     10.221  0.2642E+02  0.2634E+02  0.1295E+03  0.1295E+03
     10.307  0.2950E+02  0.2955E+02  0.1320E+03  0.1320E+03
     10.393  0.1955E+02  0.1959E+02  0.1337E+03  0.1337E+03
     10.479  0.1837E+02  0.1830E+02  0.1353E+03  0.1353E+03
     10.565  0.2759E+02  0.2758E+02  0.1377E+03  0.1377E+03
     10.651  0.2921E+02  0.2924E+02  0.1402E+03  0.1402E+03
     10.737  0.1706E+02  0.1709E+02  0.1417E+03  0.1417E+03
     10.824  0.2161E+02  0.2158E+02  0.1435E+03  0.1435E+03
     10.910  0.1660E+02  0.1671E+02  0.1450E+03  0.1450E+03
     10.996  0.8053E+01  0.8004E+01  0.1456E+03  0.1456E+03
     11.082  0.1396E+02  0.1400E+02  0.1469E+03  0.1468E+03
     11.168  0.3566E+01  0.3559E+01  0.1472E+03  0.1472E+03
     11.254  0.1758E+02  0.1753E+02  0.1487E+03  0.1487E+03
     11.340  0.1794E+02  0.1789E+02  0.1502E+03  0.1502E+03
     11.426  0.2563E+02  0.2568E+02  0.1524E+03  0.1524E+03
     11.513  0.1909E+02  0.1908E+02  0.1541E+03  0.1541E+03
     11.599  0.1097E+02  0.1107E+02  0.1550E+03  0.1550E+03
     11.685  0.9367E+01  0.9304E+01  0.1558E+03  0.1558E+03
     11.771  0.1860E+02  0.1855E+02  0.1574E+03  0.1574E+03
     11.857  0.2192E+02  0.2195E+02  0.1593E+03  0.1593E+03
     11.943  0.2337E+02  0.2332E+02  0.1613E+03  0.1613E+03
     12.029  0.2867E+02  0.2875E+02  0.1638E+03  0.1638E+03
     12.115  0.1783E+02  0.1777E+02  0.1653E+03  0.1653E+03
     12.201  0.2044E+02  0.2050E+02  0.1671E+03  0.1671E+03
     12.288  0.1836E+02  0.1832E+02  0.1687E+03  0.1687E+03
     12.374  0.1838E+02  0.1842E+02  0.1703E+03  0.1702E+03
     12.460  0.8387E+01  0.8447E+01  0.1710E+03  0.1710E+03
     12.546  0.2853E+00  0.2931E+00  0.1710E+03  0.1710E+03
     12.632  0.6183E-04  0.6518E-04  0.1710E+03  0.1710E+03
     12.718  0.6458E-02  0.6196E-02  0.1710E+03  0.1710E+03
     12.804  0.2634E+01  0.2589E+01  0.1712E+03  0.1712E+03
     12.890  0.1615E+02  0.1613E+02  0.1726E+03  0.1726E+03
     12.977  0.5316E+01  0.5355E+01  0.1731E+03  0.1731E+03
     13.063  0.1604E+02  0.1596E+02  0.1745E+03  0.1744E+03
     13.149  0.1609E+02  0.1611E+02  0.1758E+03  0.1758E+03
     13.235  0.2091E+02  0.2092E+02  0.1776E+03  0.1776E+03
     13.321  0.4145E+01  0.4218E+01  0.1780E+03  0.1780E+03
     13.407  0.3783E+01  0.3733E+01  0.1783E+03  0.1783E+03
     13.493  0.9003E+01  0.9019E+01  0.1791E+03  0.1791E+03
     13.579  0.9416E+01  0.9424E+01  0.1799E+03  0.1799E+03
     13.666  0.8011E+01  0.7974E+01  0.1806E+03  0.1806E+03
     13.752  0.1548E+02  0.1544E+02  0.1819E+03  0.1819E+03
     13.838  0.2046E+02  0.2050E+02  0.1837E+03  0.1837E+03
     13.924  0.1180E+02  0.1175E+02  0.1847E+03  0.1847E+03
     14.010  0.2213E+02  0.2217E+02  0.1866E+03  0.1866E+03
     14.096  0.1453E+02  0.1448E+02  0.1879E+03  0.1879E+03
     14.182  0.2708E+02  0.2708E+02  0.1902E+03  0.1902E+03
     14.268  0.2596E+02  0.2600E+02  0.1924E+03  0.1924E+03
     14.355  0.9517E+01  0.9556E+01  0.1933E+03  0.1933E+03
     14.441  0.1532E+02  0.1527E+02  0.1946E+03  0.1946E+03
     14.527  0.2138E+02  0.2138E+02  0.1964E+03  0.1964E+03
     14.613  0.1795E+02  0.1793E+02  0.1980E+03  0.1980E+03
     14.699  0.2447E+02  0.2422E+02  0.2001E+03  0.2000E+03
     14.785  0.1696E+02  0.1723E+02  0.2015E+03  0.2015E+03
     14.871  0.2105E+02  0.2100E+02  0.2033E+03  0.2033E+03
     14.957  0.2236E+02  0.2238E+02  0.2053E+03  0.2053E+03
     15.044  0.2173E+02  0.2175E+02  0.2071E+03  0.2071E+03
     15.130  0.1667E+02  0.1668E+02  0.2086E+03  0.2086E+03
     15.216  0.2057E+02  0.2050E+02  0.2103E+03  0.2103E+03
     15.302  0.2926E+02  0.2925E+02  0.2129E+03  0.2129E+03
     15.388  0.2829E+02  0.2828E+02  0.2153E+03  0.2153E+03
     15.474  0.2884E+02  0.2889E+02  0.2178E+03  0.2178E+03
     15.560  0.2235E+02  0.2236E+02  0.2197E+03  0.2197E+03
     15.646  0.2095E+02  0.2093E+02  0.2215E+03  0.2215E+03
     15.733  0.2925E+02  0.2923E+02  0.2240E+03  0.2240E+03
     15.819  0.2980E+02  0.2983E+02  0.2266E+03  0.2266E+03
     15.905  0.1844E+02  0.1843E+02  0.2282E+03  0.2282E+03
     15.991  0.2019E+02  0.2022E+02  0.2299E+03  0.2299E+03
     16.077  0.1926E+02  0.1923E+02  0.2316E+03  0.2316E+03
     16.163  0.3465E+02  0.3459E+02  0.2346E+03  0.2346E+03
     16.249  0.3322E+02  0.3325E+02  0.2374E+03  0.2374E+03
     16.335  0.2005E+02  0.2015E+02  0.2392E+03  0.2392E+03
     16.422  0.1377E+02  0.1374E+02  0.2403E+03  0.2403E+03
     16.508  0.2422E+02  0.2419E+02  0.2424E+03  0.2424E+03
     16.594  0.1876E+02  0.1879E+02  0.2440E+03  0.2440E+03
     16.680  0.1592E+02  0.1592E+02  0.2454E+03  0.2454E+03
     16.766  0.1250E+02  0.1250E+02  0.2465E+03  0.2465E+03
     16.852  0.2149E+02  0.2147E+02  0.2483E+03  0.2483E+03
     16.938  0.7549E+01  0.7643E+01  0.2490E+03  0.2490E+03
     17.024  0.3422E+01  0.3374E+01  0.2493E+03  0.2493E+03
     17.110  0.1438E+02  0.1437E+02  0.2505E+03  0.2505E+03
     17.197  0.5398E+01  0.5458E+01  0.2510E+03  0.2510E+03
     17.283  0.5545E-01  0.5730E-01  0.2510E+03  0.2510E+03
     17.369  0.2874E-05  0.3049E-05  0.2510E+03  0.2510E+03
     17.455  0.4873E-12  0.5311E-12  0.2510E+03  0.2510E+03
     17.541  0.0000E+00  0.0000E+00  0.2510E+03  0.2510E+03
     17.627  0.3030E-10  0.2773E-10  0.2510E+03  0.2510E+03
     17.713  0.4680E-04  0.4413E-04  0.2510E+03  0.2510E+03
     17.799  0.2481E+00  0.2407E+00  0.2510E+03  0.2510E+03
     17.886  0.8581E+01  0.8507E+01  0.2518E+03  0.2518E+03
     17.972  0.2428E+02  0.2422E+02  0.2539E+03  0.2538E+03
     18.058  0.1319E+02  0.1332E+02  0.2550E+03  0.2550E+03
     18.144  0.5474E+01  0.5420E+01  0.2555E+03  0.2555E+03
     18.230  0.1272E+02  0.1272E+02  0.2566E+03  0.2565E+03
     18.316  0.5151E+01  0.5202E+01  0.2570E+03  0.2570E+03
     18.402  0.3991E+01  0.3925E+01  0.2573E+03  0.2573E+03
     18.488  0.1450E+02  0.1447E+02  0.2586E+03  0.2586E+03
     18.575  0.1809E+02  0.1812E+02  0.2601E+03  0.2601E+03
     18.661  0.1502E+02  0.1501E+02  0.2614E+03  0.2614E+03
     18.747  0.1927E+02  0.1927E+02  0.2631E+03  0.2631E+03
     18.833  0.1501E+02  0.1503E+02  0.2644E+03  0.2644E+03
     18.919  0.2127E+02  0.2119E+02  0.2662E+03  0.2662E+03
     19.005  0.2762E+02  0.2762E+02  0.2686E+03  0.2686E+03
     19.091  0.3258E+02  0.3255E+02  0.2714E+03  0.2714E+03
     19.177  0.3594E+02  0.3597E+02  0.2745E+03  0.2745E+03
     19.264  0.2772E+02  0.2769E+02  0.2769E+03  0.2769E+03
     19.350  0.3283E+02  0.3285E+02  0.2797E+03  0.2797E+03
     19.436  0.3006E+02  0.3009E+02  0.2823E+03  0.2823E+03
     19.522  0.2286E+02  0.2288E+02  0.2843E+03  0.2843E+03
     19.608  0.2141E+02  0.2138E+02  0.2861E+03  0.2861E+03
     19.694  0.3136E+02  0.3127E+02  0.2888E+03  0.2888E+03
     19.780  0.3015E+02  0.3016E+02  0.2914E+03  0.2914E+03
     19.866  0.3072E+02  0.3076E+02  0.2941E+03  0.2940E+03
     19.953  0.2351E+02  0.2461E+02  0.2961E+03  0.2962E+03
     20.039  0.2362E+02  0.1994E+02  0.2981E+03  0.2979E+03
     20.125  0.1714E+02  0.2118E+02  0.2996E+03  0.2997E+03
     20.211  0.2152E+02  0.1993E+02  0.3015E+03  0.3014E+03
     20.297  0.2098E+02  0.9990E+01  0.3033E+03  0.3023E+03
     20.383  0.8455E+01  0.1011E+02  0.3040E+03  0.3032E+03
     20.469  0.1226E+00  0.9069E+01  0.3040E+03  0.3039E+03
     20.555  0.1143E-04  0.7028E+00  0.3040E+03  0.3040E+03
     20.642  0.3670E-11  0.3900E-03  0.3040E+03  0.3040E+03
     20.728  0.0000E+00  0.7810E-09  0.3040E+03  0.3040E+03
     20.814  0.0000E+00  0.0000E+00  0.3040E+03  0.3040E+03
     20.900  0.0000E+00  0.0000E+00  0.3040E+03  0.3040E+03
     20.986  0.0000E+00  0.0000E+00  0.3040E+03  0.3040E+03
     21.072  0.0000E+00  0.0000E+00  0.3040E+03  0.3040E+03
     21.158  0.0000E+00  0.0000E+00  0.3040E+03  0.3040E+03
     21.244  0.0000E+00  0.0000E+00  0.3040E+03  0.3040E+03
     21.331  0.0000E+00  0.0000E+00  0.3040E+03  0.3040E+03
     21.417  0.0000E+00  0.0000E+00  0.3040E+03  0.3040E+03
     21.503  0.0000E+00  0.0000E+00  0.3040E+03  0.3040E+03
     21.589  0.0000E+00  0.0000E+00  0.3040E+03  0.3040E+03
