  100  100    1    2
  0.1064800E+02  0.1021149E-08  0.1021149E-08  0.1021149E-08  0.5000000E-15
  1.000000000000000E-004
  CAR 
 unknown system                          
    400      1    304
 
  0.0000000E+00  0.0000000E+00  0.0000000E+00  0.1000000E+01
    1       -3.073566     -3.073129   1.000000   1.000000
    2       -1.960128     -1.959703   1.000000   1.000000
    3       -1.807124     -1.806658   1.000000   1.000000
    4       -1.728273     -1.727884   1.000000   1.000000
    5       -1.692309     -1.691826   1.000000   1.000000
    6       -1.522470     -1.522068   1.000000   1.000000
    7       -1.469011     -1.468533   1.000000   1.000000
    8       -0.641576     -0.641164   1.000000   1.000000
    9       -0.567457     -0.567064   1.000000   1.000000
   10       -0.527812     -0.527443   1.000000   1.000000
   11       -0.502761     -0.502290   1.000000   1.000000
   12       -0.401811     -0.401336   1.000000   1.000000
   13       -0.347995     -0.347524   1.000000   1.000000
   14       -0.304262     -0.303782   1.000000   1.000000
   15       -0.228404     -0.228024   1.000000   1.000000
   16       -0.176739     -0.176315   1.000000   1.000000
   17       -0.086576     -0.086085   1.000000   1.000000
   18       -0.048574     -0.048152   1.000000   1.000000
   19        0.190293      0.190710   1.000000   1.000000
   20        0.797343      0.797747   1.000000   1.000000
   21        0.889255      0.889681   1.000000   1.000000
   22        0.945107      0.945592   1.000000   1.000000
   23        1.029577      1.030014   1.000000   1.000000
   24        1.148253      1.148700   1.000000   1.000000
   25        1.167504      1.167932   1.000000   1.000000
   26        1.299749      1.300180   1.000000   1.000000
   27        1.429531      1.429994   1.000000   1.000000
   28        2.266343      2.266729   1.000000   1.000000
   29        2.277776      2.278201   1.000000   1.000000
   30        2.342067      2.342468   1.000000   1.000000
   31        2.410249      2.410730   1.000000   1.000000
   32        2.520811      2.521309   1.000000   1.000000
   33        2.603507      2.603927   1.000000   1.000000
   34        3.257050      3.257511   1.000000   1.000000
   35        3.300468      3.300901   1.000000   1.000000
   36        3.359343      3.359789   1.000000   1.000000
   37        3.396902      3.397330   1.000000   1.000000
   38        3.440293      3.440748   1.000000   1.000000
   39        3.456977      3.457391   1.000000   1.000000
   40        3.519533      3.520021   1.000000   1.000000
   41        3.557924      3.558342   1.000000   1.000000
   42        3.578214      3.578667   1.000000   1.000000
   43        3.637188      3.637616   1.000000   1.000000
   44        3.664231      3.664648   1.000000   1.000000
   45        3.725487      3.725925   1.000000   1.000000
   46        3.762810      3.763198   1.000000   1.000000
   47        3.820933      3.821411   1.000000   1.000000
   48        3.857439      3.857824   1.000000   1.000000
   49        3.875224      3.875631   1.000000   1.000000
   50        3.894060      3.894520   1.000000   1.000000
   51        3.983970      3.984416   1.000000   1.000000
   52        4.026205      4.026626   1.000000   1.000000
   53        4.064973      4.065418   1.000000   1.000000
   54        4.152623      4.153099   1.000000   1.000000
   55        4.231301      4.231703   1.000000   1.000000
   56        4.261495      4.261902   1.000000   1.000000
   57        4.281514      4.281950   1.000000   1.000000
   58        4.611286      4.611772   1.000000   1.000000
   59        4.707242      4.707687   1.000000   1.000000
   60        4.762632      4.763057   1.000000   1.000000
   61        4.811074      4.811534   1.000000   1.000000
   62        4.846655      4.847057   1.000000   1.000000
   63        4.871751      4.872177   1.000000   1.000000
   64        4.935734      4.936158   1.000000   1.000000
   65        4.950221      4.950633   1.000000   1.000000
   66        5.048723      5.049110   1.000000   1.000000
   67        5.084081      5.084528   1.000000   1.000000
   68        5.138189      5.138571   1.000000   1.000000
   69        5.187842      5.188295   1.000000   1.000000
   70        5.253463      5.253862   1.000000   1.000000
   71        5.269648      5.270140   1.000000   1.000000
   72        5.330557      5.330978   1.000000   1.000000
   73        5.346148      5.346568   1.000000   1.000000
   74        5.367675      5.368149   1.000000   1.000000
   75        5.410607      5.411041   1.000000   1.000000
   76        5.479406      5.479852   1.000000   1.000000
   77        5.529198      5.529591   1.000000   1.000000
   78        5.626540      5.626955   1.000000   1.000000
   79        5.662087      5.662488   1.000000   1.000000
   80        5.732488      5.732943   1.000000   1.000000
   81        5.975880      5.976287   1.000000   1.000000
   82        7.280579      7.281033   1.000000   1.000000
   83        7.351925      7.352347   1.000000   1.000000
   84        7.367676      7.368092   1.000000   1.000000
   85        7.501480      7.501907   1.000000   1.000000
   86        7.504923      7.505335   1.000000   1.000000
   87        7.582964      7.583366   1.000000   1.000000
   88        7.642947      7.643396   1.000000   1.000000
   89        7.681412      7.681846   1.000000   1.000000
   90        7.785010      7.785457   1.000000   1.000000
   91        7.800512      7.800927   1.000000   1.000000
   92        7.838056      7.838459   1.000000   1.000000
   93        7.888305      7.888828   1.000000   1.000000
   94        8.260863      8.261383   1.000000   1.000000
   95        8.319796      8.320247   1.000000   1.000000
   96        8.409676      8.410112   1.000000   1.000000
   97        8.436844      8.437265   1.000000   1.000000
   98        8.489068      8.489508   1.000000   1.000000
   99        8.502994      8.503407   1.000000   1.000000
  100        8.555513      8.555962   1.000000   1.000000
  101        8.672652      8.673104   1.000000   1.000000
  102        8.706725      8.707136   1.000000   1.000000
  103        8.749179      8.749616   1.000000   1.000000
  104        8.824274      8.824739   1.000000   1.000000
  105        8.859274      8.859665   1.000000   1.000000
  106        8.902280      8.902690   1.000000   1.000000
  107        8.929352      8.929818   1.000000   1.000000
  108        8.985072      8.985527   1.000000   1.000000
  109        9.042868      9.043290   1.000000   1.000000
  110        9.081070      9.081504   1.000000   1.000000
  111        9.109730      9.110184   1.000000   1.000000
  112        9.166473      9.166910   1.000000   1.000000
  113        9.230956      9.231326   1.000000   1.000000
  114        9.252675      9.253137   1.000000   1.000000
  115        9.341045      9.341503   1.000000   1.000000
  116        9.383910      9.384442   1.000000   1.000000
  117        9.408775      9.409150   1.000000   1.000000
  118        9.457764      9.458229   1.000000   1.000000
  119        9.493648      9.494117   1.000000   1.000000
  120        9.525679      9.526113   1.000000   1.000000
  121        9.598729      9.599134   1.000000   1.000000
  122        9.715291      9.715748   1.000000   1.000000
  123        9.785878      9.786315   1.000000   1.000000
  124        9.941926      9.942414   1.000000   1.000000
  125        9.963129      9.963664   1.000000   1.000000
  126       10.002868     10.003321   1.000000   1.000000
  127       10.087831     10.088277   1.000000   1.000000
  128       10.157988     10.158338   1.000000   1.000000
  129       10.190444     10.190868   1.000000   1.000000
  130       10.231280     10.231651   1.000000   1.000000
  131       10.239907     10.240326   1.000000   1.000000
  132       10.276991     10.277390   1.000000   1.000000
  133       10.330426     10.330873   1.000000   1.000000
  134       10.372421     10.372844   1.000000   1.000000
  135       10.455076     10.455453   1.000000   1.000000
  136       10.494553     10.495013   1.000000   1.000000
  137       10.506730     10.507139   1.000000   1.000000
  138       10.567478     10.567925   1.000000   1.000000
  139       10.593123     10.593639   1.000000   1.000000
  140       10.620189     10.620599   1.000000   1.000000
  141       10.657013     10.657480   1.000000   1.000000
  142       10.736165     10.736611   1.000000   1.000000
  143       10.772565     10.773007   1.000000   1.000000
  144       10.839147     10.839570   1.000000   1.000000
  145       10.844308     10.844796   1.000000   1.000000
  146       10.990025     10.990424   1.000000   1.000000
  147       11.044255     11.044672   1.000000   1.000000
  148       11.208200     11.208638   1.000000   1.000000
  149       11.233786     11.234236   1.000000   1.000000
  150       11.311844     11.312292   1.000000   1.000000
  151       11.361704     11.362182   1.000000   1.000000
  152       11.376913     11.377469   1.000000   1.000000
  153       11.424683     11.425072   1.000000   1.000000
  154       11.501712     11.502121   1.000000   1.000000
  155       11.516346     11.516782   1.000000   1.000000
  156       11.666290     11.666676   1.000000   1.000000
  157       11.726380     11.726851   1.000000   1.000000
  158       11.784189     11.784708   1.000000   1.000000
  159       11.804143     11.804521   1.000000   1.000000
  160       11.871259     11.871724   1.000000   1.000000
  161       11.914119     11.914552   1.000000   1.000000
  162       11.962759     11.963164   1.000000   1.000000
  163       11.975236     11.975646   1.000000   1.000000
  164       11.992791     11.993246   1.000000   1.000000
  165       12.094448     12.094867   1.000000   1.000000
  166       12.118608     12.119035   1.000000   1.000000
  167       12.153174     12.153603   1.000000   1.000000
  168       12.234560     12.234977   1.000000   1.000000
  169       12.283203     12.283614   1.000000   1.000000
  170       12.319202     12.319659   1.000000   1.000000
  171       12.390288     12.390694   1.000000   1.000000
  172       12.833591     12.834005   1.000000   1.000000
  173       12.874714     12.875101   1.000000   1.000000
  174       13.030857     13.031225   1.000000   1.000000
  175       13.052654     13.053154   1.000000   1.000000
  176       13.129771     13.130194   1.000000   1.000000
  177       13.195106     13.195563   1.000000   1.000000
  178       13.208224     13.208645   1.000000   1.000000
  179       13.423087     13.423519   1.000000   1.000000
  180       13.533881     13.534290   1.000000   1.000000
  181       13.659392     13.659797   1.000000   1.000000
  182       13.730416     13.730878   1.000000   1.000000
  183       13.785195     13.785699   1.000000   1.000000
  184       13.812545     13.812949   1.000000   1.000000
  185       13.934594     13.935049   1.000000   1.000000
  186       13.941221     13.941646   1.000000   1.000000
  187       13.996213     13.996663   1.000000   1.000000
  188       14.095344     14.095801   1.000000   1.000000
  189       14.113521     14.113912   1.000000   1.000000
  190       14.154382     14.154771   1.000000   1.000000
  191       14.197543     14.197964   1.000000   1.000000
  192       14.226556     14.226913   1.000000   1.000000
  193       14.261334     14.261757   1.000000   1.000000
  194       14.377342     14.377760   1.000000   1.000000
  195       14.451433     14.451800   1.000000   1.000000
  196       14.466717     14.467101   1.000000   1.000000
  197       14.535480     14.535870   0.999998   0.999997
  198       14.577149     14.577612   0.999652   0.999635
  199       14.657192     14.657873   0.870153   0.866035
  200       14.685116     14.686139   0.632057   0.621092
  201       14.696270     14.697715   0.508703   0.492397
  202       14.787652     14.788040   0.005191   0.005029
  203       14.838557     14.839018   0.000031   0.000030
  204       14.881724     14.882167   0.000000   0.000000
  205       14.908461     14.908874   0.000000   0.000000
  206       14.984970     14.985424   0.000000   0.000000
  207       14.993819     14.994259   0.000000   0.000000
  208       15.066398     15.066780   0.000000   0.000000
  209       15.123341     15.123707   0.000000   0.000000
  210       15.192966     15.193366   0.000000   0.000000
  211       15.217040     15.217475   0.000000   0.000000
  212       15.259194     15.259671   0.000000   0.000000
  213       15.293374     15.293794   0.000000   0.000000
  214       15.312841     15.313259   0.000000   0.000000
  215       15.382624     15.383003   0.000000   0.000000
  216       15.393055     15.393419   0.000000   0.000000
  217       15.406473     15.406885   0.000000   0.000000
  218       15.460157     15.460634   0.000000   0.000000
  219       15.509652     15.510079   0.000000   0.000000
  220       15.545831     15.546286   0.000000   0.000000
  221       15.600201     15.600578   0.000000   0.000000
  222       15.652045     15.652494   0.000000   0.000000
  223       15.687752     15.688194   0.000000   0.000000
  224       15.701930     15.702334   0.000000   0.000000
  225       15.763127     15.763543   0.000000   0.000000
  226       15.774005     15.774419   0.000000   0.000000
  227       15.798291     15.798742   0.000000   0.000000
  228       15.878587     15.879057   0.000000   0.000000
  229       15.915039     15.915493   0.000000   0.000000
  230       15.968254     15.968659   0.000000   0.000000
  231       16.020304     16.020677   0.000000   0.000000
  232       16.081268     16.081717   0.000000   0.000000
  233       16.119317     16.119736   0.000000   0.000000
  234       16.129602     16.130019   0.000000   0.000000
  235       16.165216     16.165619   0.000000   0.000000
  236       16.177955     16.178356   0.000000   0.000000
  237       16.223875     16.224318   0.000000   0.000000
  238       16.256440     16.256876   0.000000   0.000000
  239       16.269674     16.270108   0.000000   0.000000
  240       16.364659     16.365064   0.000000   0.000000
  241       16.435384     16.435838   0.000000   0.000000
  242       16.488406     16.488781   0.000000   0.000000
  243       16.491102     16.491497   0.000000   0.000000
  244       16.560802     16.561196   0.000000   0.000000
  245       16.620857     16.621248   0.000000   0.000000
  246       16.683277     16.683695   0.000000   0.000000
  247       16.770209     16.770647   0.000000   0.000000
  248       16.829309     16.829716   0.000000   0.000000
  249       16.841643     16.842035   0.000000   0.000000
  250       17.044930     17.045350   0.000000   0.000000
  251       17.104965     17.105366   0.000000   0.000000
  252       17.871166     17.871611   0.000000   0.000000
  253       17.934206     17.934624   0.000000   0.000000
  254       17.963767     17.964205   0.000000   0.000000
  255       17.979872     17.980312   0.000000   0.000000
  256       18.148659     18.149120   0.000000   0.000000
  257       18.224357     18.224740   0.000000   0.000000
  258       18.417393     18.417946   0.000000   0.000000
  259       18.491733     18.492190   0.000000   0.000000
  260       18.525352     18.525821   0.000000   0.000000
  261       18.600090     18.600526   0.000000   0.000000
  262       18.669156     18.669556   0.000000   0.000000
  263       18.710796     18.711258   0.000000   0.000000
  264       18.768915     18.769380   0.000000   0.000000
  265       18.841871     18.842281   0.000000   0.000000
  266       18.902455     18.902906   0.000000   0.000000
  267       18.925860     18.926305   0.000000   0.000000
  268       18.958798     18.959287   0.000000   0.000000
  269       19.012264     19.012705   0.000000   0.000000
  270       19.028620     19.029052   0.000000   0.000000
  271       19.075231     19.075726   0.000000   0.000000
  272       19.082174     19.082610   0.000000   0.000000
  273       19.140152     19.140609   0.000000   0.000000
  274       19.146217     19.146662   0.000000   0.000000
  275       19.153429     19.153844   0.000000   0.000000
  276       19.227544     19.228042   0.000000   0.000000
  277       19.256762     19.257211   0.000000   0.000000
  278       19.274901     19.275333   0.000000   0.000000
  279       19.312724     19.313198   0.000000   0.000000
  280       19.340431     19.340857   0.000000   0.000000
  281       19.378158     19.378567   0.000000   0.000000
  282       19.401686     19.402154   0.000000   0.000000
  283       19.441170     19.441592   0.000000   0.000000
  284       19.483597     19.484028   0.000000   0.000000
  285       19.532126     19.532567   0.000000   0.000000
  286       19.583948     19.584430   0.000000   0.000000
  287       19.626139     19.626590   0.000000   0.000000
  288       19.664774     19.665189   0.000000   0.000000
  289       19.677715     19.678230   0.000000   0.000000
  290       19.714054     19.714825   0.000000   0.000000
  291       19.743056     19.743719   0.000000   0.000000
  292       19.792548     19.793322   0.000000   0.000000
  293       19.808553     19.808973   0.000000   0.000000
  294       19.856917     19.858359   0.000000   0.000000
  295       19.868881     19.868975   0.000000   0.000000
  296       19.922832     19.922325   0.000000   0.000000
  297       19.977841     19.967223   0.000000   0.000000
  298       20.006504     20.015048   0.000000   0.000000
  299       20.052962     20.078164   0.000000   0.000000
  300       20.127256     20.106044   0.000000   0.000000
  301       20.162435     20.171804   0.000000   0.000000
  302       20.212582     20.205435   0.000000   0.000000
  303       20.265309     20.316396   0.000000   0.000000
  304       20.301083     20.414480   0.000000   0.000000
