       N       E                     dE             d eps       ncg     rms          rms(c)
RMM:   1     0.139329215623E+04    0.13933E+04   -0.74777E+04   608   0.514E+02
RMM:   2     0.134334686888E+02   -0.13799E+04   -0.13213E+04   608   0.120E+02
RMM:   3    -0.275150119580E+03   -0.28858E+03   -0.28096E+03   608   0.494E+01
RMM:   4    -0.355144471533E+03   -0.79994E+02   -0.67334E+02   608   0.282E+01
RMM:   5    -0.381384511924E+03   -0.26240E+02   -0.21254E+02   608   0.129E+01
RMM:   6    -0.391161704281E+03   -0.97772E+01   -0.74863E+01   608   0.767E+00
RMM:   7    -0.394664338466E+03   -0.35026E+01   -0.28858E+01   608   0.386E+00
RMM:   8    -0.396073596814E+03   -0.14093E+01   -0.11508E+01   608   0.238E+00
RMM:   9    -0.396898561378E+03   -0.82496E+00   -0.75407E+00  1501   0.127E+00
RMM:  10    -0.397000889169E+03   -0.10233E+00   -0.48253E-01  1442   0.246E-01
RMM:  11    -0.397002802842E+03   -0.19137E-02   -0.13101E-02  1347   0.430E-02
RMM:  12    -0.397002814291E+03   -0.11449E-04   -0.10958E-04  1077   0.554E-03    0.623E+01
RMM:  13    -0.403283212059E+03   -0.62804E+01   -0.11033E+01  1346   0.356E+00    0.379E+01
RMM:  14    -0.411340585252E+03   -0.80574E+01   -0.56069E+00  1337   0.286E+00    0.174E+01
RMM:  15    -0.411978448328E+03   -0.63786E+00   -0.10871E+00  1394   0.113E+00    0.341E+00
RMM:  16    -0.412106757647E+03   -0.12831E+00   -0.37936E-01  1402   0.719E-01    0.217E+00
RMM:  17    -0.412180787591E+03   -0.74030E-01   -0.95584E-02  1427   0.311E-01    0.112E+00
RMM:  18    -0.412203786653E+03   -0.22999E-01   -0.23787E-02  1411   0.164E-01    0.511E-01
RMM:  19    -0.412208567239E+03   -0.47806E-02   -0.57056E-03  1432   0.814E-02    0.230E-01
RMM:  20    -0.412210054802E+03   -0.14876E-02   -0.19233E-03  1439   0.505E-02    0.129E-01
RMM:  21    -0.412210882911E+03   -0.82811E-03   -0.10997E-03  1407   0.397E-02    0.885E-02
RMM:  22    -0.412211403704E+03   -0.52079E-03   -0.75649E-04  1403   0.332E-02    0.628E-02
RMM:  23    -0.412211778298E+03   -0.37459E-03   -0.83335E-04  1386   0.354E-02    0.420E-02
RMM:  24    -0.412211983303E+03   -0.20500E-03   -0.69597E-04  1386   0.322E-02    0.236E-02
RMM:  25    -0.412212057121E+03   -0.73818E-04   -0.35967E-04  1404   0.228E-02    0.112E-02
RMM:  26    -0.412212075191E+03   -0.18070E-04   -0.11250E-04  1439   0.124E-02    0.555E-03
RMM:  27    -0.412212079766E+03   -0.45753E-05   -0.33776E-05  1109   0.685E-03
   1 F= -.41221208E+03 E0= -.41217646E+03  d E =-.712315E-01  mag=     0.0156
