 vasp.5.4.4.18Apr17-6-g9f103f2a35 (build Sep 16 2020 16:20:45) complex          
  
 executed on             LinuxIFC date 2021.08.09  15:23:02
 running on   16 total cores
 distrk:  each k-point on   16 cores,    1 groups
 distr:  one band on NCORES_PER_BAND=   1 cores,   16 groups


--------------------------------------------------------------------------------------------------------


 INCAR:
 POTCAR:    PAW_PBE Si 05Jan2001                  

 ----------------------------------------------------------------------------- 
|                                                                             |
|           W    W    AA    RRRRR   N    N  II  N    N   GGGG   !!!           |
|           W    W   A  A   R    R  NN   N  II  NN   N  G    G  !!!           |
|           W    W  A    A  R    R  N N  N  II  N N  N  G       !!!           |
|           W WW W  AAAAAA  RRRRR   N  N N  II  N  N N  G  GGG   !            |
|           WW  WW  A    A  R   R   N   NN  II  N   NN  G    G                |
|           W    W  A    A  R    R  N    N  II  N    N   GGGG   !!!           |
|                                                                             |
|      For optimal performance we recommend to set                            |
|        NCORE= 4 - approx SQRT( number of cores)                             |
|      NCORE specifies how many cores store one orbital (NPAR=cpu/NCORE).     |
|      This setting can  greatly improve the performance of VASP for DFT.     |
|      The default,   NCORE=1            might be grossly inefficient         |
|      on modern multi-core architectures or massively parallel machines.     |
|      Do your own testing !!!!                                               |
|      Unfortunately you need to use the default for GW and RPA calculations. |
|      (for HF NCORE is supported but not extensively tested yet)             |
|                                                                             |
 ----------------------------------------------------------------------------- 

 POTCAR:    PAW_PBE Si 05Jan2001                  
   SHA256 =  79d9987ad8750f624c4d6acb2a16d13abf6a777132adc04dc6c8399be72b42bb Si
   COPYR  = (c) Copyright 05Jan2001 Georg Kresse                                
   COPYR  = This file is part of the software VASP. Any use, copying, and all ot
   COPYR  = If you do not have a valid VASP license, you may not use, copy or di
   VRHFIN =Si: s2p2                                                             
   LEXCH  = PE                                                                  
   EATOM  =   103.0669 eV,    7.5752 Ry                                         
                                                                                
   TITEL  = PAW_PBE Si 05Jan2001                                                
   LULTRA =        F    use ultrasoft PP ?                                      
   IUNSCR =        1    unscreen: 0-lin 1-nonlin 2-no                           
   RPACOR =    1.500    partial core radius                                     
   POMASS =   28.085; ZVAL   =    4.000    mass and valenz                      
   RCORE  =    1.900    outmost cutoff radius                                   
   RWIGS  =    2.480; RWIGS  =    1.312    wigner-seitz radius (au A)           
   ENMAX  =  245.345; ENMIN  =  184.009 eV                                      
   ICORE  =        2    local potential                                         
   LCOR   =        T    correct aug charges                                     
   LPAW   =        T    paw PP                                                  
   EAUG   =  322.069                                                            
   DEXC   =    0.000                                                            
   RMAX   =    1.950    core radius for proj-oper                               
   RAUG   =    1.300    factor for augmentation sphere                          
   RDEP   =    1.993    radius for radial grids                                 
   RDEPT  =    1.837    core radius for aug-charge                              
                                                                                
   Atomic configuration                                                         
    6 entries                                                                   
     n  l   j            E        occ.                                          
     1  0  0.50     -1785.8828   2.0000                                         
     2  0  0.50      -139.4969   2.0000                                         
     2  1  1.50       -95.5546   6.0000                                         
     3  0  0.50       -10.8127   2.0000                                         
     3  1  0.50        -4.0811   2.0000                                         
     3  2  1.50        -4.0817   0.0000                                         
   Description                                                                  
     l       E           TYP  RCUT    TYP  RCUT                                 
     0    -10.8127223     23  1.900                                             
     0     -7.6451159     23  1.900                                             
     1     -4.0811372     23  1.900                                             
     1      2.4879257     23  1.900                                             
     2     -4.0817478      7  1.900                                             
  local pseudopotential read in
  partial core-charges read in
  partial kinetic energy density read in
  atomic valenz-charges read in
  non local Contribution for L=           0  read in
    real space projection operators read in
  non local Contribution for L=           0  read in
    real space projection operators read in
  non local Contribution for L=           1  read in
    real space projection operators read in
  non local Contribution for L=           1  read in
    real space projection operators read in
    PAW grid and wavefunctions read in
 
   number of l-projection  operators is LMAX  =           4
   number of lm-projection operators is LMMAX =           8
 
 Optimization of the real space projectors (new method)

 maximal supplied QI-value         = 19.84
 optimisation between [QCUT,QGAM] = [  7.94, 15.87] = [ 17.64, 70.56] Ry 
 Optimized for a Real-space Cutoff    1.57 Angstroem

   l    n(q)    QCUT    max X(q) W(low)/X(q) W(high)/X(q)  e(spline) 
   0      7     7.937   159.560    0.16E-03    0.38E-03    0.13E-06
   0      7     7.937   115.863    0.15E-03    0.37E-03    0.13E-06
   1      7     7.937    88.339    0.42E-03    0.67E-03    0.13E-06
   1      7     7.937    48.592    0.41E-03    0.65E-03    0.13E-06
  PAW_PBE Si 05Jan2001                  :
 energy of atom  1       EATOM= -103.0669
 kinetic energy error for atom=    0.0056 (will be added to EATOM!!)
 
 
 POSCAR: MLIP output to VASP                     
  positions in cartesian coordinates
  No initial velocities read in
 exchange correlation table for  LEXCH =        8
   RHO(1)=    0.500       N(1)  =     2000
   RHO(2)=  100.500       N(2)  =     4000
 


--------------------------------------------------------------------------------------------------------


 ion  position               nearest neighbor table
   1  0.823  0.769  0.092-  90 2.24  41 2.27  36 2.32   2 2.33  79 2.39  95 2.42  38 2.46  43 2.48
                            61 2.50  21 2.73  67 3.00  20 3.10
   2  0.817  0.900  0.906-  10 2.27  83 2.29  70 2.30   1 2.33   6 2.41  50 2.41  36 2.41  61 2.54
                            41 2.57  30 2.62  56 2.80  43 2.95  60 3.14
   3  0.694  0.140  0.421-  48 2.21  15 2.31  86 2.33  25 2.39  91 2.43  81 2.48  31 2.51  88 2.67
                            19 2.73   9 2.73  47 2.93  14 2.93  90 3.00  12 3.08
   4  0.788  0.220  0.856-  13 2.09  94 2.15  30 2.17  23 2.29  71 2.41  69 2.42  14 2.50  83 2.53
                            50 2.58  96 2.71  48 2.89
   5  0.306  0.991  0.405-  91 2.21  66 2.22  16 2.31  76 2.34  82 2.34  11 2.41  62 2.44 100 2.46
                            99 2.54  19 2.54   9 2.82  37 3.00  39 3.10
   6  0.612  0.799  0.847-  77 2.26  60 2.28  70 2.32  61 2.36  21 2.36  41 2.36   2 2.41  74 2.51
                            93 2.52  80 2.53  89 2.62  30 2.80
   7  0.496  0.578  0.439-   8 2.30  63 2.30  78 2.33  24 2.33  76 2.38  20 2.39  42 2.40  81 2.44
                            74 2.46  84 2.77  58 2.89
   8  0.502  0.546  0.216-   7 2.30  55 2.31  20 2.33  21 2.37  24 2.38  38 2.42  75 2.51  92 2.52
                            87 2.59  29 2.81  37 2.91  81 2.97  78 3.03
   9  0.551  0.964  0.279-  37 2.26  90 2.28  31 2.29  91 2.33  86 2.34  20 2.44  40 2.45  61 2.47
                            76 2.58   3 2.73  19 2.78 100 2.79   5 2.82
  10  0.012  0.002  0.878-  56 2.20   2 2.27  32 2.29  36 2.30  27 2.32  96 2.40  13 2.49  83 2.52
                            53 2.59  17 2.71  43 2.78  50 3.02
  11  0.186  0.190  0.442-  16 2.28  68 2.28  28 2.31  35 2.34  39 2.38   5 2.41  62 2.47  17 2.60
                            19 2.70  78 2.90 100 3.09  15 3.12
  12  0.812  0.418  0.415-  81 2.29  92 2.39  67 2.43  28 2.46  14 2.47  44 2.48  63 2.49  47 2.60
                            38 2.73  15 2.76  22 2.82  58 3.04   3 3.08
  13  0.976  0.220  0.775-   4 2.09  17 2.21  32 2.33  22 2.38  97 2.45  68 2.46  10 2.49  83 2.62
                            96 2.66  14 2.74  15 2.75  69 2.90  18 3.01
  14  0.771  0.318  0.632-  15 2.16  69 2.20  48 2.24  63 2.28  22 2.45  71 2.45  12 2.47   4 2.50
                            13 2.74  81 2.85   3 2.93  44 3.06
  15  0.891  0.183  0.522-  14 2.16  17 2.21  88 2.26   3 2.31  25 2.35  22 2.56  83 2.68  28 2.72
                            13 2.75  12 2.76  48 2.85  16 2.90  11 3.12
  16  0.081  0.994  0.428-  17 2.25  11 2.28  88 2.31   5 2.31  25 2.36  66 2.37  82 2.37  99 2.38
                            98 2.39  39 2.42  15 2.90  95 2.97  43 3.14
  17  0.050  0.081  0.628-  13 2.21  15 2.21  16 2.25  99 2.28  68 2.33  32 2.38  83 2.54  88 2.55
                            11 2.60  10 2.71  56 2.73  62 2.75
  18  0.181  0.265  0.982-  85 2.14  32 2.20  97 2.21  96 2.28  27 2.29  29 2.30  26 2.49  72 2.70
                            51 2.77  35 2.78  13 3.01  39 3.05 100 3.13
  19  0.439  0.197  0.364- 100 2.28  45 2.29  91 2.31  55 2.32  81 2.39   5 2.54  35 2.61  86 2.65
                            11 2.70   3 2.73   9 2.78  78 2.88  62 3.07
  20  0.605  0.732  0.300-  38 2.18   8 2.33  76 2.34  58 2.35   7 2.39  37 2.42  31 2.43   9 2.44
                            90 2.62  21 2.64  61 3.01  24 3.01   1 3.10
  21  0.572  0.689  0.047-  61 2.17  75 2.21   6 2.36  87 2.37   8 2.37  77 2.46  41 2.56  37 2.57
                            20 2.64  38 2.66   1 2.73  65 2.91  89 2.95  80 2.98
  22  0.999  0.389  0.616-  68 2.20  44 2.33  46 2.33  13 2.38  28 2.44  14 2.45  15 2.56  69 2.77
                            12 2.82  57 2.85  34 2.92  97 3.00  54 3.09
  23  0.617  0.249  0.998-  86 2.27   4 2.29  71 2.33  85 2.35  30 2.36  94 2.38  75 2.45  55 2.47
                            40 2.50  50 2.62  92 2.75  65 2.85
  24  0.321  0.655  0.314-  82 2.25  37 2.25  76 2.25   7 2.33   8 2.38  78 2.41  64 2.43  52 2.47
                            34 2.70  87 2.79  84 2.97  20 3.01
  25  0.895  0.078  0.318-  47 2.13  88 2.22  90 2.23  39 2.30  43 2.33  15 2.35  16 2.36   3 2.39
                            50 2.81  95 2.97  86 3.02
  26  0.021  0.375  0.128-  52 2.17  47 2.22  79 2.25  96 2.28  97 2.29  94 2.36  18 2.49  35 2.62
                            28 2.63  67 2.76  59 2.83  39 2.83  29 2.89
  27  0.179  0.046  0.026-  18 2.29  10 2.32  32 2.35  33 2.37 100 2.38  96 2.42  66 2.44  39 2.45
                            53 2.45  43 2.60  85 2.86  36 3.04
  28  0.042  0.354  0.384-  11 2.31  52 2.38  22 2.44  34 2.45  12 2.46  35 2.50  26 2.63  47 2.64
                            67 2.72  15 2.72  39 2.79  78 2.94  46 3.08
  29  0.292  0.439  0.074-  87 2.17  65 2.28  18 2.30  35 2.34  52 2.34  55 2.45  85 2.50  59 2.58
                            72 2.59   8 2.81  26 2.89  97 3.10
  30  0.635  0.073  0.850-   4 2.17  49 2.24  60 2.29  23 2.36  48 2.38  83 2.45  71 2.56   2 2.62
                            40 2.67  50 2.70  61 2.77   6 2.80
  31  0.671  0.898  0.456-  58 2.16  91 2.19  88 2.19   9 2.29  60 2.29  20 2.43  90 2.44   3 2.51
                            76 2.63  74 2.65  95 3.10  48 3.10
  32  0.183  0.132  0.813-  68 2.19  53 2.19  18 2.20  10 2.29  13 2.33  27 2.35  17 2.38  62 2.45
                            49 2.48  51 2.52  85 2.95  99 3.04  96 3.07
  33  0.227  0.820  0.049-  87 2.18  66 2.22  77 2.24  36 2.26  27 2.37  37 2.38  64 2.40  59 2.45
                            53 2.51  73 2.66  43 3.09
  34  0.094  0.584  0.430-  52 2.18  67 2.21  57 2.23  46 2.33  82 2.37  28 2.45  44 2.52  64 2.52
                            98 2.58  78 2.65  24 2.70  22 2.92  95 3.04  84 3.13
  35  0.236  0.299  0.246-  39 2.22  52 2.28 100 2.30  29 2.34  11 2.34  78 2.44  28 2.50  55 2.55
                            19 2.61  26 2.62  18 2.78  85 3.11
  36  0.018  0.800  0.979-  59 2.21  33 2.26  10 2.30   1 2.32  43 2.34   2 2.41  56 2.49  54 2.58
                            73 2.64  64 2.84  79 2.89  41 2.96  27 3.04  53 3.11
  37  0.410  0.816  0.193-  24 2.25   9 2.26  33 2.38  20 2.42  87 2.45  76 2.47  77 2.55  21 2.57
                            66 2.58  61 2.67  40 2.87   8 2.91   5 3.00 100 3.04
  38  0.736  0.584  0.219-  67 2.12  92 2.16  20 2.18  79 2.40   8 2.42  75 2.43   1 2.46  21 2.66
                            12 2.73  58 2.91  95 2.92
  39  0.098  0.131  0.235-  35 2.22  66 2.28  25 2.30  11 2.38  43 2.41  96 2.42  16 2.42 100 2.45
                            27 2.45  47 2.73  28 2.79  26 2.83  18 3.05   5 3.10
  40  0.487  0.053  0.065-  61 2.09 100 2.11  85 2.20  86 2.34   9 2.45  23 2.50  77 2.56  49 2.64
                            30 2.67  37 2.87  55 3.00  50 3.13
  41  0.778  0.652  0.909-  54 2.19  80 2.24  70 2.26   1 2.27  79 2.27   6 2.36  69 2.37  75 2.48
                            21 2.56   2 2.57  36 2.96
  42  0.418  0.497  0.645-  46 2.22  89 2.31  45 2.33  84 2.40   7 2.40  63 2.48  51 2.54  72 2.59
                            78 2.60  80 2.61  74 2.80  65 2.87  71 2.90
  43  0.973  0.954  0.143-  25 2.33  36 2.34  90 2.34  50 2.36  66 2.40  39 2.41   1 2.48  95 2.48
                            96 2.55  27 2.60  10 2.78  64 2.84   2 2.95  33 3.09  16 3.14
  44  0.892  0.585  0.572-  58 2.13  57 2.27  22 2.33  98 2.46  12 2.48  34 2.52  63 2.59  70 2.61
                            54 2.62  69 2.84  67 2.95  14 3.06
  45  0.455  0.284  0.570-  81 2.24  19 2.29  42 2.33  51 2.37  48 2.40  62 2.44  71 2.51  78 2.67
                            91 2.83  68 2.97  63 3.00
  46  0.207  0.482  0.600-  57 2.10  78 2.17  42 2.22  68 2.24  34 2.33  22 2.33  72 2.35  84 2.54
                            28 3.08  51 3.11
  47  0.863  0.260  0.222-  25 2.13  92 2.20  26 2.22  94 2.42  96 2.44  86 2.53  12 2.60  50 2.60
                            28 2.64  39 2.73   3 2.93
  48  0.636  0.146  0.629-  60 2.17   3 2.21  14 2.24  71 2.32  91 2.33  30 2.38  45 2.40  83 2.50
                            15 2.85   4 2.89  49 3.03  81 3.09  31 3.10
  49  0.418  0.073  0.817-  30 2.24  62 2.26  53 2.28  51 2.37  85 2.41  93 2.46  32 2.48  40 2.64
                            77 2.68  60 2.91  71 2.94  48 3.03
  50  0.793  0.075  0.063-  96 2.22  86 2.30  43 2.36  90 2.39   2 2.41  61 2.54   4 2.58  47 2.60
                            23 2.62  30 2.70  25 2.81  94 2.96  10 3.02  40 3.13
  51  0.364  0.297  0.783-  72 2.21  71 2.23  85 2.24  45 2.37  68 2.37  49 2.37  65 2.38  32 2.52
                            42 2.54  62 2.70  18 2.77  46 3.11
  52  0.148  0.503  0.240-  26 2.17  34 2.18  35 2.28  64 2.33  29 2.34  67 2.37  28 2.38  24 2.47
                            78 2.56  59 2.57  79 3.11
  53  0.249  0.928  0.829-  32 2.19  77 2.26  99 2.28  49 2.28  93 2.33  73 2.35  27 2.45  33 2.51
                            10 2.59  56 2.64  62 2.82  36 3.11
  54  0.968  0.614  0.815-  41 2.19  57 2.25  69 2.34  97 2.40  56 2.49  73 2.50  70 2.52  59 2.54
                            36 2.58  44 2.62  79 2.66  22 3.09
  55  0.475  0.324  0.179-  92 2.26   8 2.31  19 2.32  85 2.32  86 2.36  29 2.45  23 2.47  35 2.55
                           100 2.70  81 2.78  75 2.86  65 2.98  40 3.00
  56  0.024  0.839  0.738-  10 2.20  57 2.29  99 2.30  98 2.30  73 2.36  70 2.40  54 2.49  36 2.49
                            53 2.64  17 2.73  83 2.74   2 2.80
  57  0.095  0.650  0.638-  46 2.10  73 2.17  98 2.20  34 2.23  54 2.25  44 2.27  56 2.29  84 2.39
                            82 2.76  22 2.85  99 2.88  72 3.07
  58  0.747  0.702  0.479-  44 2.13  31 2.16  74 2.22  20 2.35  63 2.50  95 2.56  70 2.64  98 2.71
                             7 2.89  38 2.91  88 2.96  67 3.02  12 3.04
  59  0.115  0.610  0.015-  36 2.21  79 2.26  87 2.38  73 2.39  97 2.44  33 2.45  64 2.51  54 2.54
                            52 2.57  29 2.58  72 2.72  26 2.83
  60  0.622  0.938  0.672-  93 2.17  48 2.17   6 2.28  30 2.29  31 2.29  83 2.30  91 2.36  74 2.37
                            70 2.55  49 2.91  88 3.08   2 3.14
  61  0.618  0.897  0.056-  40 2.09  21 2.17   6 2.36  77 2.40  90 2.40   9 2.47   1 2.50   2 2.54
                            50 2.54  37 2.67  30 2.77  20 3.01  86 3.08
  62  0.320  0.094  0.620-  99 2.24  49 2.26  68 2.35  91 2.37   5 2.44  45 2.44  32 2.45  11 2.47
                            51 2.70  93 2.71  17 2.75  53 2.82  19 3.07
  63  0.653  0.501  0.582-  80 2.24  81 2.26  14 2.28   7 2.30  74 2.35  42 2.48  12 2.49  58 2.50
                            44 2.59  69 2.79  71 2.92  45 3.00
  64  0.110  0.728  0.231-  66 2.19  95 2.25  82 2.32  52 2.33  33 2.40  24 2.43  67 2.45  59 2.51
                            34 2.52  36 2.84  43 2.84
  65  0.454  0.462  0.922-  75 2.20  89 2.26  29 2.28  72 2.35  80 2.38  51 2.38  87 2.47  71 2.52
                            85 2.57  23 2.85  42 2.87  21 2.91  55 2.98
  66  0.188  0.928  0.233-  64 2.19  33 2.22   5 2.22  39 2.28 100 2.35  16 2.37  43 2.40  27 2.44
                            82 2.45  37 2.58
  67  0.933  0.577  0.286-  38 2.12  95 2.18  34 2.21  79 2.33  52 2.37  12 2.43  64 2.45  28 2.72
                            26 2.76  44 2.95   1 3.00  58 3.02
  68  0.176  0.271  0.650-  32 2.19  22 2.20  46 2.24  11 2.28  17 2.33  62 2.35  51 2.37  13 2.46
                            72 2.81  45 2.97
  69  0.809  0.449  0.800-  14 2.20  80 2.23  54 2.34  94 2.35  41 2.37   4 2.42  97 2.62  71 2.74
                            22 2.77  63 2.79  44 2.84  75 2.87  13 2.90  79 3.03
  70  0.800  0.770  0.723-  41 2.26   2 2.30   6 2.32  56 2.40  54 2.52  74 2.54  60 2.55  83 2.56
                            44 2.61  58 2.64  98 2.88  80 2.92  88 3.09
  71  0.582  0.307  0.780-  51 2.23  48 2.32  23 2.33   4 2.41  14 2.45  45 2.51  65 2.52  30 2.56
                            80 2.60  69 2.74  42 2.90  63 2.92  49 2.94  85 3.04
  72  0.244  0.471  0.827-  51 2.21  97 2.32  46 2.35  65 2.35  73 2.44  89 2.47  29 2.59  42 2.59
                            18 2.70  59 2.72  68 2.81  87 2.99  57 3.07
  73  0.196  0.704  0.817-  57 2.17  89 2.23  53 2.35  56 2.36  59 2.39  72 2.44  54 2.50  84 2.54
                            36 2.64  33 2.66  87 2.83  99 2.97  77 2.99  93 3.09
  74  0.581  0.716  0.618-  58 2.22  93 2.35  63 2.35  60 2.37  80 2.42   7 2.46   6 2.51  70 2.54
                            76 2.57  31 2.65  84 2.68  89 2.75  42 2.80
  75  0.643  0.486  0.023-  65 2.20  21 2.21  94 2.26  92 2.36  38 2.43  23 2.45  41 2.48  80 2.50
                             8 2.51  79 2.81  55 2.86  69 2.87
  76  0.433  0.803  0.434-  24 2.25  84 2.30  20 2.34   5 2.34   7 2.38  91 2.43  82 2.43  37 2.47
                            74 2.57   9 2.58  31 2.63  93 2.78
  77  0.419  0.844  0.945-  33 2.24   6 2.26  53 2.26  61 2.40  89 2.41  87 2.42  21 2.46  93 2.52
                            37 2.55  40 2.56  49 2.68  73 2.99
  78  0.313  0.444  0.420-  46 2.17   7 2.33  24 2.41  35 2.44  52 2.56  42 2.60  34 2.65  45 2.67
                            19 2.88  11 2.90  28 2.94  81 3.00   8 3.03
  79  0.907  0.552  0.061-  94 2.21  26 2.25  59 2.26  41 2.27  67 2.33   1 2.39  38 2.40  97 2.53
                            54 2.66  75 2.81  36 2.89  69 3.03  52 3.11
  80  0.620  0.558  0.790-  69 2.23  63 2.24  41 2.24  89 2.38  65 2.38  74 2.42  75 2.50   6 2.53
                            71 2.60  42 2.61  70 2.92  21 2.98
  81  0.595  0.361  0.420-  92 2.21  45 2.24  63 2.26  12 2.29  19 2.39   7 2.44   3 2.48  55 2.78
                            14 2.85   8 2.97  78 3.00  86 3.06  48 3.09
  82  0.195  0.792  0.431-  99 2.22  24 2.25  98 2.26  64 2.32  84 2.32   5 2.34  34 2.37  16 2.37
                            76 2.43  66 2.45  57 2.76  95 3.13
  83  0.827  0.019  0.717-   2 2.29  60 2.30  88 2.31  30 2.45  48 2.50  10 2.52   4 2.53  17 2.54
                            70 2.56  13 2.62  15 2.68  56 2.74
  84  0.319  0.705  0.601-  93 2.19  76 2.30  82 2.32  57 2.39  42 2.40  89 2.41  99 2.46  46 2.54
                            73 2.54  74 2.68   7 2.77  24 2.97  34 3.13
  85  0.388  0.229  0.991-  18 2.14  40 2.20  51 2.24  55 2.32  23 2.35  49 2.41  29 2.50 100 2.50
                            65 2.57  27 2.86  32 2.95  71 3.04  35 3.11
  86  0.637  0.161  0.201-  23 2.27  92 2.29  50 2.30   3 2.33   9 2.34  40 2.34  55 2.36  47 2.53
                            19 2.65  90 2.80  25 3.02  81 3.06  61 3.08
  87  0.344  0.642  0.042-  29 2.17  33 2.18  21 2.37  59 2.38  77 2.42  89 2.43  37 2.45  65 2.47
                             8 2.59  24 2.79  73 2.83  72 2.99
  88  0.870  0.964  0.501-  98 2.11  31 2.19  25 2.22  15 2.26  16 2.31  83 2.31  17 2.55   3 2.67
                            95 2.68  90 2.92  58 2.96  60 3.08  70 3.09
  89  0.407  0.649  0.812-  73 2.23  65 2.26  42 2.31  80 2.38  84 2.41  77 2.41  87 2.43  72 2.47
                            93 2.48   6 2.62  74 2.75  21 2.95
  90  0.766  0.922  0.238-  95 2.17  25 2.23   1 2.24   9 2.28  43 2.34  50 2.39  61 2.40  31 2.44
                            20 2.62  86 2.80  88 2.92   3 3.00
  91  0.501  0.022  0.494-  31 2.19   5 2.21  19 2.31  48 2.33   9 2.33  60 2.36  62 2.37  76 2.43
                             3 2.43  93 2.76  45 2.83
  92  0.684  0.379  0.224-  38 2.16  47 2.20  81 2.21  55 2.26  86 2.29  75 2.36  12 2.39   8 2.52
                            94 2.60  23 2.75
  93  0.425  0.863  0.699-  60 2.17  84 2.19  53 2.33  74 2.35  49 2.46  89 2.48  77 2.52   6 2.52
                            99 2.54  62 2.71  91 2.76  76 2.78  73 3.09
  94  0.823  0.359  0.011-   4 2.15  79 2.21  75 2.26  69 2.35  26 2.36  23 2.38  47 2.42  96 2.48
                            97 2.51  92 2.60  50 2.96
  95  0.914  0.788  0.311-  90 2.17  67 2.18  64 2.25  98 2.27   1 2.42  43 2.48  58 2.56  88 2.68
                            38 2.92  16 2.97  25 2.97  34 3.04  31 3.10  82 3.13
  96  0.982  0.177  0.032-  50 2.22  26 2.28  18 2.28  10 2.40  27 2.42  39 2.42  47 2.44  94 2.48
                            43 2.55  13 2.66   4 2.71  97 2.77  32 3.07
  97  0.039  0.410  0.907-  18 2.21  26 2.29  72 2.32  54 2.40  59 2.44  13 2.45  94 2.51  79 2.53
                            69 2.62  96 2.77  22 3.00  29 3.10
  98  0.992  0.798  0.519-  88 2.11  57 2.20  82 2.26  95 2.27  56 2.30  16 2.39  44 2.46  99 2.58
                            34 2.58  58 2.71  70 2.88
  99  0.196  0.912  0.613-  82 2.22  62 2.24  53 2.28  17 2.28  56 2.30  16 2.38  84 2.46   5 2.54
                            93 2.54  98 2.58  57 2.88  73 2.97  32 3.04
 100  0.332  0.102  0.193-  40 2.11  19 2.28  35 2.30  66 2.35  27 2.38  39 2.45   5 2.46  85 2.50
                            55 2.70   9 2.79  37 3.04  11 3.09  18 3.13
 

IMPORTANT INFORMATION: All symmetrisations will be switched off!
NOSYMM: (Re-)initialisation of all symmetry stuff for point group C_1.

 
 
 KPOINTS: simple                                  

Automatic generation of k-mesh.
Space group operators:
 irot       det(A)        alpha          n_x          n_y          n_z        tau_x        tau_y        tau_z
    1     1.000000     0.000000     1.000000     0.000000     0.000000     0.000000     0.000000     0.000000
 
 Subroutine IBZKPT returns following result:
 ===========================================
 
 Found      1 irreducible k-points:
 
 Following reciprocal coordinates:
            Coordinates               Weight
  0.000000  0.000000  0.000000      1.000000
 
 Following cartesian coordinates:
            Coordinates               Weight
  0.000000  0.000000  0.000000      1.000000
 


--------------------------------------------------------------------------------------------------------




 Dimension of arrays:
   k-points           NKPTS =      1   k-points in BZ     NKDIM =      1   number of bands    NBANDS=    304
   number of dos      NEDOS =    301   number of ions     NIONS =    100
   non local maximal  LDIM  =      4   non local SUM 2l+1 LMDIM =      8
   total plane-waves  NPLWV =  64000
   max r-space proj   IRMAX =   1017   max aug-charges    IRDMAX=   2209
   dimension x,y,z NGX =    40 NGY =   40 NGZ =   40
   dimension x,y,z NGXF=    80 NGYF=   80 NGZF=   80
   support grid    NGXF=    80 NGYF=   80 NGZF=   80
   ions per type =             100
   NGX,Y,Z   is equivalent  to a cutoff of   6.51,  6.51,  6.51 a.u.
   NGXF,Y,Z  is equivalent  to a cutoff of  13.02, 13.02, 13.02 a.u.

 SYSTEM =  unknown system                          
 POSCAR =  MLIP output to VASP                     

 Startparameter for this run:
   NWRITE =      2    write-flag & timer
   PREC   = normal    normal or accurate (medium, high low for compatibility)
   ISTART =      0    job   : 0-new  1-cont  2-samecut
   ICHARG =      2    charge: 1-file 2-atom 10-const
   ISPIN  =      2    spin polarized calculation?
   LNONCOLLINEAR =      F non collinear calculations
   LSORBIT =      F    spin-orbit coupling
   INIWAV =      1    electr: 0-lowe 1-rand  2-diag
   LASPH  =      F    aspherical Exc in radial PAW
   METAGGA=      F    non-selfconsistent MetaGGA calc.

 Electronic Relaxation 1
   ENCUT  =  245.3 eV  18.03 Ry    4.25 a.u.  13.04 13.04 13.04*2*pi/ulx,y,z
   ENINI  =  245.3     initial cutoff
   ENAUG  =  322.1 eV  augmentation charge cutoff
   NELM   =     60;   NELMIN=  4; NELMDL=-12     # of ELM steps 
   EDIFF  = 0.1E-04   stopping-criterion for ELM
   LREAL  =      T    real-space projection
   NLSPLINE    = F    spline interpolate recip. space projectors
   LCOMPAT=      F    compatible to vasp.4.4
   GGA_COMPAT  = T    GGA compatible to vasp.4.4-vasp.4.6
   LMAXPAW     = -100 max onsite density
   LMAXMIX     =    2 max onsite mixed and CHGCAR
   VOSKOWN=      0    Vosko Wilk Nusair interpolation
   ROPT   =   -0.00050
 Ionic relaxation
   EDIFFG = 0.1E-03   stopping-criterion for IOM
   NSW    =      0    number of steps for IOM
   NBLOCK =      1;   KBLOCK =      1    inner block; outer block 
   IBRION =     -1    ionic relax: 0-MD 1-quasi-New 2-CG
   NFREE  =      0    steps in history (QN), initial steepest desc. (CG)
   ISIF   =      2    stress and relaxation
   IWAVPR =     10    prediction:  0-non 1-charg 2-wave 3-comb
   ISYM   =      0    0-nonsym 1-usesym 2-fastsym
   LCORR  =      T    Harris-Foulkes like correction to forces

   POTIM  = 0.5000    time-step for ionic-motion
   TEIN   =    0.0    initial temperature
   TEBEG  =    0.0;   TEEND  =   0.0 temperature during run
   SMASS  =  -3.00    Nose mass-parameter (am)
   estimated Nose-frequenzy (Omega)   =  0.10E-29 period in steps =****** mass=  -0.238E-26a.u.
   SCALEE = 1.0000    scale energy and forces
   NPACO  =    256;   APACO  = 16.0  distance and # of slots for P.C.
   PSTRESS=    0.0 pullay stress

  Mass of Ions in am
   POMASS =  28.09
  Ionic Valenz
   ZVAL   =   4.00
  Atomic Wigner-Seitz radii
   RWIGS  =  -1.00
  virtual crystal weights 
   VCA    =   1.00
   NELECT =     400.0000    total number of electrons
   NUPDOWN=      -1.0000    fix difference up-down

 DOS related values:
   EMIN   =  10.00;   EMAX   =-10.00  energy-range for DOS
   EFERMI =   0.00
   ISMEAR =     0;   SIGMA  =   0.05  broadening in eV -4-tet -1-fermi 0-gaus

 Electronic relaxation 2 (details)
   IALGO  =     48    algorithm
   LDIAG  =      T    sub-space diagonalisation (order eigenvalues)
   LSUBROT=      F    optimize rotation matrix (better conditioning)
   TURBO    =      0    0=normal 1=particle mesh
   IRESTART =      0    0=no restart 2=restart with 2 vectors
   NREBOOT  =      0    no. of reboots
   NMIN     =      0    reboot dimension
   EREF     =   0.00    reference energy to select bands
   IMIX   =      4    mixing-type and parameters
     AMIX     =   0.40;   BMIX     =  1.00
     AMIX_MAG =   1.60;   BMIX_MAG =  1.00
     AMIN     =   0.10
     WC   =   100.;   INIMIX=   1;  MIXPRE=   1;  MAXMIX= -45

 Intra band minimization:
   WEIMIN = 0.0000     energy-eigenvalue tresh-hold
   EBREAK =  0.82E-08  absolut break condition
   DEPER  =   0.30     relativ break condition  

   TIME   =   0.40     timestep for ELM

  volume/ion in A,a.u.               =      10.65        71.86
  Fermi-wavevector in a.u.,A,eV,Ry     =   1.181242  2.232223 18.984649  1.395332
  Thomas-Fermi vector in A             =   2.317519
 
 Write flags
   LWAVE        =      F    write WAVECAR
   LDOWNSAMPLE  =      F    k-point downsampling of WAVECAR
   LCHARG       =      F    write CHGCAR
   LVTOT        =      F    write LOCPOT, total local potential
   LVHAR        =      F    write LOCPOT, Hartree potential only
   LELF         =      F    write electronic localiz. function (ELF)
   LORBIT       =      0    0 simple, 1 ext, 2 COOP (PROOUT), +10 PAW based schemes


 Dipole corrections
   LMONO  =      F    monopole corrections only (constant potential shift)
   LDIPOL =      F    correct potential (dipole corrections)
   IDIPOL =      0    1-x, 2-y, 3-z, 4-all directions 
   EPSILON=  1.0000000 bulk dielectric constant

 Exchange correlation treatment:
   GGA     =    --    GGA type
   LEXCH   =     8    internal setting for exchange type
   VOSKOWN=      0    Vosko Wilk Nusair interpolation
   LHFCALC =     F    Hartree Fock is set to
   LHFONE  =     F    Hartree Fock one center treatment
   AEXX    =    0.0000 exact exchange contribution

 Linear response parameters
   LEPSILON=     F    determine dielectric tensor
   LRPA    =     F    only Hartree local field effects (RPA)
   LNABLA  =     F    use nabla operator in PAW spheres
   LVEL    =     F    velocity operator in full k-point grid
   LINTERFAST=   F  fast interpolation
   KINTER  =     0    interpolate to denser k-point grid
   CSHIFT  =0.1000    complex shift for real part using Kramers Kronig
   OMEGAMAX=  -1.0    maximum frequency
   DEG_THRESHOLD= 0.2000000E-02 threshold for treating states as degnerate
   RTIME   =   -0.100 relaxation time in fs
  (WPLASMAI=    0.000 imaginary part of plasma frequency in eV, 0.658/RTIME)
   DFIELD  = 0.0000000 0.0000000 0.0000000 field for delta impulse in time
 
 Orbital magnetization related:
   ORBITALMAG=     F  switch on orbital magnetization
   LCHIMAG   =     F  perturbation theory with respect to B field
   DQ        =  0.001000  dq finite difference perturbation B field
   LLRAUG    =     F  two centre corrections for induced B field



--------------------------------------------------------------------------------------------------------


 Static calculation
 charge density and potential will be updated during run
 spin polarized calculation
 RMM-DIIS sequential band-by-band
 perform sub-space diagonalisation
    before iterative eigenvector-optimisation
 modified Broyden-mixing scheme, WC =      100.0
 initial mixing is a Kerker type mixing with AMIX =  0.4000 and BMIX =      1.0000
 Hartree-type preconditioning will be used
 using additional bands          104
 real space projection scheme for non local part
 use partial core corrections
 calculate Harris-corrections to forces 
   (improved forces if not selfconsistent)
 use gradient corrections 
 use of overlap-Matrix (Vanderbilt PP)
 Gauss-broadening in eV      SIGMA  =   0.05


--------------------------------------------------------------------------------------------------------


  energy-cutoff  :      245.34
  volume of cell :     1064.80
      direct lattice vectors                 reciprocal lattice vectors
    10.211495000  0.000000000  0.000000000     0.097928854  0.000000000  0.000000000
     0.000000000 10.211495000  0.000000000     0.000000000  0.097928854  0.000000000
     0.000000000  0.000000000 10.211495000     0.000000000  0.000000000  0.097928854

  length of vectors
    10.211495000 10.211495000 10.211495000     0.097928854  0.097928854  0.097928854


 
 k-points in units of 2pi/SCALE and weight: simple                                  
   0.00000000  0.00000000  0.00000000       1.000
 
 k-points in reciprocal lattice and weights: simple                                  
   0.00000000  0.00000000  0.00000000       1.000
 
 position of ions in fractional coordinates (direct lattice) 
   0.82329218  0.76851734  0.09241282
   0.81654136  0.89999878  0.90624585
   0.69400710  0.14016537  0.42063332
   0.78825755  0.22019881  0.85620764
   0.30635162  0.99086412  0.40469755
   0.61183999  0.79946932  0.84726840
   0.49607506  0.57822689  0.43911827
   0.50171606  0.54611191  0.21590355
   0.55086763  0.96376623  0.27884565
   0.01200950  0.00179592  0.87842769
   0.18644136  0.19045664  0.44239967
   0.81164041  0.41810665  0.41537483
   0.97575879  0.22001499  0.77527953
   0.77080457  0.31849000  0.63231770
   0.89129378  0.18342603  0.52227436
   0.08147720  0.99428056  0.42772356
   0.05048350  0.08087670  0.62761682
   0.18143171  0.26546534  0.98166331
   0.43877934  0.19728874  0.36351181
   0.60499251  0.73184103  0.29987509
   0.57188110  0.68935411  0.04665193
   0.99917554  0.38868648  0.61645273
   0.61671724  0.24924822  0.99799246
   0.32099492  0.65482478  0.31408741
   0.89548935  0.07792473  0.31832058
   0.02100094  0.37545061  0.12807439
   0.17900258  0.04587213  0.02600853
   0.04153574  0.35408929  0.38354188
   0.29197498  0.43850837  0.07391288
   0.63495267  0.07262443  0.84996271
   0.67105816  0.89798438  0.45635708
   0.18271673  0.13156428  0.81281419
   0.22692789  0.81973511  0.04893201
   0.09421118  0.58384350  0.43038820
   0.23588750  0.29867537  0.24603440
   0.01755463  0.79975665  0.97886803
   0.41042394  0.81551634  0.19328649
   0.73601965  0.58390040  0.21933057
   0.09750482  0.13142571  0.23467651
   0.48710517  0.05326125  0.06524951
   0.77849512  0.65150029  0.90905622
   0.41840504  0.49655863  0.64521728
   0.97261165  0.95366614  0.14310245
   0.89235954  0.58513058  0.57154227
   0.45512239  0.28426288  0.57006942
   0.20658973  0.48241663  0.60048524
   0.86316724  0.26009737  0.22240945
   0.63623397  0.14573018  0.62888186
   0.41816786  0.07346603  0.81655223
   0.79274974  0.07462149  0.06258388
   0.36415726  0.29685634  0.78328090
   0.14776122  0.50345155  0.24035795
   0.24913580  0.92795903  0.82901260
   0.96790950  0.61440690  0.81502601
   0.47485780  0.32417007  0.17850090
   0.02444157  0.83853011  0.73817889
   0.09467066  0.65041857  0.63788828
   0.74734816  0.70233644  0.47858604
   0.11521741  0.60986330  0.01501768
   0.62198689  0.93755371  0.67160254
   0.61840230  0.89695172  0.05645383
   0.31958866  0.09375199  0.61978917
   0.65312846  0.50077907  0.58153835
   0.11016036  0.72804364  0.23063342
   0.45355768  0.46204919  0.92173634
   0.18792606  0.92760306  0.23312473
   0.93260438  0.57655476  0.28604440
   0.17562002  0.27064823  0.65033729
   0.80920551  0.44914785  0.79980551
   0.79972511  0.76974351  0.72273090
   0.58219624  0.30693782  0.77952993
   0.24366109  0.47067222  0.82728445
   0.19570719  0.70447618  0.81716517
   0.58084570  0.71593190  0.61800794
   0.64259964  0.48621079  0.02314509
   0.43334899  0.80257337  0.43361192
   0.41860139  0.84447145  0.94521850
   0.31278309  0.44358324  0.41998924
   0.90703359  0.55208018  0.06087972
   0.61976713  0.55807636  0.79017832
   0.59503746  0.36141975  0.42019900
   0.19533124  0.79227273  0.43092554
   0.82681077  0.01899379  0.71672502
   0.31915180  0.70473471  0.60067835
   0.38765773  0.22945631  0.99088615
   0.63740040  0.16115535  0.20108016
   0.34433136  0.64162064  0.04207239
   0.87002217  0.96382939  0.50134471
   0.40684356  0.64909927  0.81247251
   0.76607079  0.92173428  0.23822173
   0.50066685  0.02229918  0.49358414
   0.68396675  0.37925681  0.22367303
   0.42461334  0.86347621  0.69902928
   0.82258337  0.35869459  0.01117055
   0.91366377  0.78783587  0.31107110
   0.98222415  0.17705321  0.03233337
   0.03935672  0.41036998  0.90705524
   0.99218009  0.79755158  0.51877448
   0.19636743  0.91203453  0.61286109
   0.33167279  0.10222235  0.19254566
 
 position of ions in cartesian coordinates  (Angst):
   8.40704400  7.84771100  0.94367300
   8.33810800  9.19033300  9.25412500
   7.08685000  1.43129800  4.29529500
   8.04928800  2.24855900  8.74316000
   3.12830800 10.11820400  4.13256700
   6.24780100  8.16377700  8.65187700
   5.06566800  5.90456100  4.48405400
   5.12327100  5.57661900  2.20469800
   5.62518200  9.84149400  2.84743100
   0.12263500  0.01833900  8.97006000
   1.90384500  1.94484700  4.51756200
   8.28806200  4.26949400  4.24159800
   9.96395600  2.24668200  7.91676300
   7.87106700  3.25225900  6.45690900
   9.10144200  1.87305400  5.33320200
   0.83200400 10.15309100  4.36769700
   0.51551200  0.82587200  6.40890600
   1.85268900  2.71079800 10.02425000
   4.48059300  2.01461300  3.71199900
   6.17787800  7.47319100  3.06217300
   5.83976100  7.03933600  0.47638600
  10.20307600  3.96907000  6.29490400
   6.29760500  2.54519700 10.19099500
   3.27783800  6.68674000  3.20730200
   9.14428500  0.79572800  3.25052900
   0.21445100  3.83391200  1.30783100
   1.82788400  0.46842300  0.26558600
   0.42414200  3.61578100  3.91653600
   2.98150100  4.47782600  0.75476100
   6.48381600  0.74160400  8.67939000
   6.85250700  9.16976300  4.66008800
   1.86581100  1.34346800  8.30004800
   2.31727300  8.37072100  0.49966900
   0.96203700  5.96191500  4.39490700
   2.40876400  3.04992200  2.51237900
   0.17925900  8.16671100  9.99570600
   4.19104200  8.32764100  1.97374400
   7.51586100  5.96249600  2.23969300
   0.99567000  1.34205300  2.39639800
   4.97407200  0.54387700  0.66629500
   7.94959900  6.65279200  9.28282300
   4.27254100  5.07060600  6.58863300
   9.93181900  9.73835700  1.46129000
   9.11232500  5.97505800  5.83630100
   4.64748000  2.90274900  5.82126100
   2.10959000  4.92619500  6.13185200
   8.81422800  2.65598300  2.27113300
   6.49690000  1.48812300  6.42182400
   4.27011900  0.75019800  8.33821900
   8.09516000  0.76199700  0.63907500
   3.71859000  3.03134700  7.99846900
   1.50886300  5.14099300  2.45441400
   2.54404900  9.47584900  8.46545800
   9.88380300  6.27401300  8.32263400
   4.84900800  3.31026100  1.82276100
   0.24958500  8.56264600  7.53791000
   0.96672900  6.64174600  6.51379300
   7.63154200  7.17190500  4.88707900
   1.17654200  6.22761600  0.15335300
   6.35141600  9.57382500  6.85806600
   6.31481200  9.15921800  0.57647800
   3.26347800  0.95734800  6.32897400
   6.66941800  5.11370300  5.93837600
   1.12490200  7.43441400  2.35511200
   4.63150200  4.71821300  9.41230600
   1.91900600  9.47221400  2.38055200
   9.52328500  5.88748600  2.92094100
   1.79334300  2.76372300  6.64091600
   8.26319800  4.58647100  8.16721000
   8.16638900  7.86023200  7.38016300
   5.94509400  3.13429400  7.96016600
   2.48814400  4.80626700  8.44781100
   1.99846300  7.19375500  8.34447800
   5.93130300  7.31073500  6.31078500
   6.56190300  4.96493900  0.23634600
   4.42514100  8.19547400  4.42782600
   4.27454600  8.62331600  9.65209400
   3.19398300  4.52964800  4.28871800
   9.26216900  5.63756400  0.62167300
   6.32874900  5.69879400  8.06890200
   6.07622200  3.69063600  4.29086000
   1.99462400  8.09028900  4.40039400
   8.44297400  0.19395500  7.31883400
   3.25901700  7.19639500  6.13382400
   3.95856500  2.34309200 10.11842900
   6.50881100  1.64563700  2.05332900
   3.51613800  6.55190600  0.42962200
   8.88422700  9.84213900  5.11947900
   4.15448100  6.62827400  8.29655900
   7.82272800  9.41228500  2.43260000
   5.11255700  0.22770800  5.04023200
   6.98432300  3.87277900  2.28403600
   4.33593700  8.81738300  7.13813400
   8.39980600  3.66280800  0.11406800
   9.32987300  8.04498200  3.17650100
  10.02997700  1.80797800  0.33017200
   0.40189100  4.19049100  9.26239000
  10.13164200  8.14419400  5.29746300
   2.00520500  9.31323600  6.25822800
   3.38687500  1.04384300  1.96617900
 


--------------------------------------------------------------------------------------------------------


 k-point  1 :   0.0000 0.0000 0.0000  plane waves:    9315

 maximum and minimum number of plane-waves per node :      9315     9315

 maximum number of plane-waves:      9315
 maximum index in each direction: 
   IXMAX=   13   IYMAX=   13   IZMAX=   13
   IXMIN=  -13   IYMIN=  -13   IZMIN=  -13


 serial   3D FFT for wavefunctions
 parallel 3D FFT for charge:
    minimum data exchange during FFTs selected (reduces bandwidth)


 total amount of memory used by VASP MPI-rank0    53945. kBytes
=======================================================================

   base      :      30000. kBytes
   nonlr-proj:       8277. kBytes
   fftplans  :       1377. kBytes
   grid      :       7520. kBytes
   one-center:        614. kBytes
   wavefun   :       6157. kBytes
 
     INWAV:  cpu time    0.0000: real time    0.0002
 Broyden mixing: mesh for mixing (old mesh)
   NGX = 27   NGY = 27   NGZ = 27
  (NGX  = 80   NGY  = 80   NGZ  = 80)
  gives a total of  19683 points

 initial charge density was supplied:
 charge density of overlapping atoms calculated
 number of electron     400.0000000 magnetization     100.0000000
 keeping initial charge density in first step


--------------------------------------------------------------------------------------------------------


 Maximum index for non-local projection operator          952
 Maximum index for augmentation-charges          191 (set IRDMAX)


--------------------------------------------------------------------------------------------------------


 First call to EWALD:  gamma=   0.174
 Maximum number of real-space cells 3x 3x 3
 Maximum number of reciprocal cells 3x 3x 3

    FEWALD:  cpu time    0.0073: real time    0.0073


--------------------------------------- Iteration      1(   1)  ---------------------------------------


    POTLOK:  cpu time    0.0552: real time    0.1704
    SETDIJ:  cpu time    0.0347: real time    0.0348
    EDDIAG:  cpu time    0.3430: real time    0.3449
  RMM-DIIS:  cpu time    0.4328: real time    0.4378
    ORTHCH:  cpu time    0.0972: real time    0.0978
       DOS:  cpu time    0.0004: real time    0.0004
    --------------------------------------------
      LOOP:  cpu time    0.9633: real time    1.0861

 eigenvalue-minimisations  :   608
 total energy-change (2. order) : 0.1393292E+04  (-0.7477710E+04)
 number of electron     400.0000000 magnetization     100.0000000
 augmentation part      400.0000000 magnetization     100.0000000

 Free energy of the ion-electron system (eV)
  ---------------------------------------------------
  alpha Z        PSCENC =       316.14514549
  Ewald energy   TEWEN  =    -14914.21071787
  -Hartree energ DENC   =       -94.66806024
  -exchange      EXHF   =         0.00000000
  -V(xc)+E(xc)   XCENC  =      -777.34764819
  PAW double counting   =      8803.41707833    -7043.47671478
  entropy T*S    EENTRO =        -0.03491922
  eigenvalues    EBANDS =      4797.33937711
  atomic energy  EATOM  =     10306.12861560
  Solvation  Ediel_sol  =         0.00000000
  ---------------------------------------------------
  free energy    TOTEN  =      1393.29215623 eV

  energy without entropy =     1393.32707545  energy(sigma->0) =     1393.30961584


--------------------------------------------------------------------------------------------------------




--------------------------------------- Iteration      1(   2)  ---------------------------------------


    EDDIAG:  cpu time    0.3400: real time    0.3421
  RMM-DIIS:  cpu time    0.4342: real time    0.4393
    ORTHCH:  cpu time    0.0969: real time    0.0975
       DOS:  cpu time    0.0003: real time    0.0003
    --------------------------------------------
      LOOP:  cpu time    0.8715: real time    0.8793

 eigenvalue-minimisations  :   608
 total energy-change (2. order) :-0.1379859E+04  (-0.1321345E+04)
 number of electron     400.0000000 magnetization     100.0000000
 augmentation part      400.0000000 magnetization     100.0000000

 Free energy of the ion-electron system (eV)
  ---------------------------------------------------
  alpha Z        PSCENC =       316.14514549
  Ewald energy   TEWEN  =    -14914.21071787
  -Hartree energ DENC   =       -94.66806024
  -exchange      EXHF   =         0.00000000
  -V(xc)+E(xc)   XCENC  =      -777.34764819
  PAW double counting   =      8803.41707833    -7043.47671478
  entropy T*S    EENTRO =        -0.03517717
  eigenvalues    EBANDS =      3417.48094752
  atomic energy  EATOM  =     10306.12861560
  Solvation  Ediel_sol  =         0.00000000
  ---------------------------------------------------
  free energy    TOTEN  =        13.43346869 eV

  energy without entropy =       13.46864586  energy(sigma->0) =       13.45105727


--------------------------------------------------------------------------------------------------------




--------------------------------------- Iteration      1(   3)  ---------------------------------------


    EDDIAG:  cpu time    0.3377: real time    0.3397
  RMM-DIIS:  cpu time    0.4411: real time    0.4462
    ORTHCH:  cpu time    0.0969: real time    0.0975
       DOS:  cpu time    0.0003: real time    0.0003
    --------------------------------------------
      LOOP:  cpu time    0.8760: real time    0.8837

 eigenvalue-minimisations  :   608
 total energy-change (2. order) :-0.2885836E+03  (-0.2809622E+03)
 number of electron     400.0000000 magnetization     100.0000000
 augmentation part      400.0000000 magnetization     100.0000000

 Free energy of the ion-electron system (eV)
  ---------------------------------------------------
  alpha Z        PSCENC =       316.14514549
  Ewald energy   TEWEN  =    -14914.21071787
  -Hartree energ DENC   =       -94.66806024
  -exchange      EXHF   =         0.00000000
  -V(xc)+E(xc)   XCENC  =      -777.34764819
  PAW double counting   =      8803.41707833    -7043.47671478
  entropy T*S    EENTRO =        -0.04799812
  eigenvalues    EBANDS =      3128.91018020
  atomic energy  EATOM  =     10306.12861560
  Solvation  Ediel_sol  =         0.00000000
  ---------------------------------------------------
  free energy    TOTEN  =      -275.15011958 eV

  energy without entropy =     -275.10212146  energy(sigma->0) =     -275.12612052


--------------------------------------------------------------------------------------------------------




--------------------------------------- Iteration      1(   4)  ---------------------------------------


    EDDIAG:  cpu time    0.3371: real time    0.3392
  RMM-DIIS:  cpu time    0.4380: real time    0.4430
    ORTHCH:  cpu time    0.0970: real time    0.0975
       DOS:  cpu time    0.0003: real time    0.0003
    --------------------------------------------
      LOOP:  cpu time    0.8724: real time    0.8800

 eigenvalue-minimisations  :   608
 total energy-change (2. order) :-0.7999435E+02  (-0.6733366E+02)
 number of electron     400.0000000 magnetization     100.0000000
 augmentation part      400.0000000 magnetization     100.0000000

 Free energy of the ion-electron system (eV)
  ---------------------------------------------------
  alpha Z        PSCENC =       316.14514549
  Ewald energy   TEWEN  =    -14914.21071787
  -Hartree energ DENC   =       -94.66806024
  -exchange      EXHF   =         0.00000000
  -V(xc)+E(xc)   XCENC  =      -777.34764819
  PAW double counting   =      8803.41707833    -7043.47671478
  entropy T*S    EENTRO =        -0.04906506
  eigenvalues    EBANDS =      3048.91689519
  atomic energy  EATOM  =     10306.12861560
  Solvation  Ediel_sol  =         0.00000000
  ---------------------------------------------------
  free energy    TOTEN  =      -355.14447153 eV

  energy without entropy =     -355.09540647  energy(sigma->0) =     -355.11993900


--------------------------------------------------------------------------------------------------------




--------------------------------------- Iteration      1(   5)  ---------------------------------------


    EDDIAG:  cpu time    0.3368: real time    0.3388
  RMM-DIIS:  cpu time    0.4399: real time    0.4449
    ORTHCH:  cpu time    0.0970: real time    0.0976
       DOS:  cpu time    0.0004: real time    0.0004
    --------------------------------------------
      LOOP:  cpu time    0.8741: real time    0.8816

 eigenvalue-minimisations  :   608
 total energy-change (2. order) :-0.2624004E+02  (-0.2125415E+02)
 number of electron     400.0000000 magnetization     100.0000000
 augmentation part      400.0000000 magnetization     100.0000000

 Free energy of the ion-electron system (eV)
  ---------------------------------------------------
  alpha Z        PSCENC =       316.14514549
  Ewald energy   TEWEN  =    -14914.21071787
  -Hartree energ DENC   =       -94.66806024
  -exchange      EXHF   =         0.00000000
  -V(xc)+E(xc)   XCENC  =      -777.34764819
  PAW double counting   =      8803.41707833    -7043.47671478
  entropy T*S    EENTRO =        -0.06010653
  eigenvalues    EBANDS =      3022.68789626
  atomic energy  EATOM  =     10306.12861560
  Solvation  Ediel_sol  =         0.00000000
  ---------------------------------------------------
  free energy    TOTEN  =      -381.38451192 eV

  energy without entropy =     -381.32440540  energy(sigma->0) =     -381.35445866


--------------------------------------------------------------------------------------------------------




--------------------------------------- Iteration      1(   6)  ---------------------------------------


    EDDIAG:  cpu time    0.3353: real time    0.3373
  RMM-DIIS:  cpu time    0.4414: real time    0.4465
    ORTHCH:  cpu time    0.0970: real time    0.0976
       DOS:  cpu time    0.0003: real time    0.0003
    --------------------------------------------
      LOOP:  cpu time    0.8740: real time    0.8817

 eigenvalue-minimisations  :   608
 total energy-change (2. order) :-0.9777192E+01  (-0.7486339E+01)
 number of electron     400.0000000 magnetization     100.0000000
 augmentation part      400.0000000 magnetization     100.0000000

 Free energy of the ion-electron system (eV)
  ---------------------------------------------------
  alpha Z        PSCENC =       316.14514549
  Ewald energy   TEWEN  =    -14914.21071787
  -Hartree energ DENC   =       -94.66806024
  -exchange      EXHF   =         0.00000000
  -V(xc)+E(xc)   XCENC  =      -777.34764819
  PAW double counting   =      8803.41707833    -7043.47671478
  entropy T*S    EENTRO =        -0.05996925
  eigenvalues    EBANDS =      3012.91056663
  atomic energy  EATOM  =     10306.12861560
  Solvation  Ediel_sol  =         0.00000000
  ---------------------------------------------------
  free energy    TOTEN  =      -391.16170428 eV

  energy without entropy =     -391.10173504  energy(sigma->0) =     -391.13171966


--------------------------------------------------------------------------------------------------------




--------------------------------------- Iteration      1(   7)  ---------------------------------------


    EDDIAG:  cpu time    0.3358: real time    0.3378
  RMM-DIIS:  cpu time    0.4381: real time    0.4431
    ORTHCH:  cpu time    0.0971: real time    0.0976
       DOS:  cpu time    0.0003: real time    0.0003
    --------------------------------------------
      LOOP:  cpu time    0.8712: real time    0.8788

 eigenvalue-minimisations  :   608
 total energy-change (2. order) :-0.3502634E+01  (-0.2885752E+01)
 number of electron     400.0000000 magnetization     100.0000000
 augmentation part      400.0000000 magnetization     100.0000000

 Free energy of the ion-electron system (eV)
  ---------------------------------------------------
  alpha Z        PSCENC =       316.14514549
  Ewald energy   TEWEN  =    -14914.21071787
  -Hartree energ DENC   =       -94.66806024
  -exchange      EXHF   =         0.00000000
  -V(xc)+E(xc)   XCENC  =      -777.34764819
  PAW double counting   =      8803.41707833    -7043.47671478
  entropy T*S    EENTRO =        -0.06214196
  eigenvalues    EBANDS =      3009.41010516
  atomic energy  EATOM  =     10306.12861560
  Solvation  Ediel_sol  =         0.00000000
  ---------------------------------------------------
  free energy    TOTEN  =      -394.66433847 eV

  energy without entropy =     -394.60219650  energy(sigma->0) =     -394.63326748


--------------------------------------------------------------------------------------------------------




--------------------------------------- Iteration      1(   8)  ---------------------------------------


    EDDIAG:  cpu time    0.3369: real time    0.3389
  RMM-DIIS:  cpu time    0.4368: real time    0.4417
    ORTHCH:  cpu time    0.0967: real time    0.0972
       DOS:  cpu time    0.0003: real time    0.0003
    --------------------------------------------
      LOOP:  cpu time    0.8707: real time    0.8782

 eigenvalue-minimisations  :   608
 total energy-change (2. order) :-0.1409258E+01  (-0.1150789E+01)
 number of electron     400.0000000 magnetization     100.0000000
 augmentation part      400.0000000 magnetization     100.0000000

 Free energy of the ion-electron system (eV)
  ---------------------------------------------------
  alpha Z        PSCENC =       316.14514549
  Ewald energy   TEWEN  =    -14914.21071787
  -Hartree energ DENC   =       -94.66806024
  -exchange      EXHF   =         0.00000000
  -V(xc)+E(xc)   XCENC  =      -777.34764819
  PAW double counting   =      8803.41707833    -7043.47671478
  entropy T*S    EENTRO =        -0.06615868
  eigenvalues    EBANDS =      3008.00486352
  atomic energy  EATOM  =     10306.12861560
  Solvation  Ediel_sol  =         0.00000000
  ---------------------------------------------------
  free energy    TOTEN  =      -396.07359681 eV

  energy without entropy =     -396.00743814  energy(sigma->0) =     -396.04051748


--------------------------------------------------------------------------------------------------------




--------------------------------------- Iteration      1(   9)  ---------------------------------------


    EDDIAG:  cpu time    0.3376: real time    0.3396
  RMM-DIIS:  cpu time    0.9674: real time    0.9795
    ORTHCH:  cpu time    0.0969: real time    0.0975
       DOS:  cpu time    0.0003: real time    0.0003
    --------------------------------------------
      LOOP:  cpu time    1.4021: real time    1.4169

 eigenvalue-minimisations  :  1501
 total energy-change (2. order) :-0.8249646E+00  (-0.7540715E+00)
 number of electron     400.0000000 magnetization     100.0000000
 augmentation part      400.0000000 magnetization     100.0000000

 Free energy of the ion-electron system (eV)
  ---------------------------------------------------
  alpha Z        PSCENC =       316.14514549
  Ewald energy   TEWEN  =    -14914.21071787
  -Hartree energ DENC   =       -94.66806024
  -exchange      EXHF   =         0.00000000
  -V(xc)+E(xc)   XCENC  =      -777.34764819
  PAW double counting   =      8803.41707833    -7043.47671478
  entropy T*S    EENTRO =        -0.06249221
  eigenvalues    EBANDS =      3007.17623249
  atomic energy  EATOM  =     10306.12861560
  Solvation  Ediel_sol  =         0.00000000
  ---------------------------------------------------
  free energy    TOTEN  =      -396.89856138 eV

  energy without entropy =     -396.83606917  energy(sigma->0) =     -396.86731527


--------------------------------------------------------------------------------------------------------




--------------------------------------- Iteration      1(  10)  ---------------------------------------


    EDDIAG:  cpu time    0.3363: real time    0.3383
  RMM-DIIS:  cpu time    0.9288: real time    0.9401
    ORTHCH:  cpu time    0.0969: real time    0.0975
       DOS:  cpu time    0.0003: real time    0.0003
    --------------------------------------------
      LOOP:  cpu time    1.3624: real time    1.3763

 eigenvalue-minimisations  :  1442
 total energy-change (2. order) :-0.1023278E+00  (-0.4825327E-01)
 number of electron     400.0000000 magnetization     100.0000000
 augmentation part      400.0000000 magnetization     100.0000000

 Free energy of the ion-electron system (eV)
  ---------------------------------------------------
  alpha Z        PSCENC =       316.14514549
  Ewald energy   TEWEN  =    -14914.21071787
  -Hartree energ DENC   =       -94.66806024
  -exchange      EXHF   =         0.00000000
  -V(xc)+E(xc)   XCENC  =      -777.34764819
  PAW double counting   =      8803.41707833    -7043.47671478
  entropy T*S    EENTRO =        -0.06083146
  eigenvalues    EBANDS =      3007.07224396
  atomic energy  EATOM  =     10306.12861560
  Solvation  Ediel_sol  =         0.00000000
  ---------------------------------------------------
  free energy    TOTEN  =      -397.00088917 eV

  energy without entropy =     -396.94005771  energy(sigma->0) =     -396.97047344


--------------------------------------------------------------------------------------------------------




--------------------------------------- Iteration      1(  11)  ---------------------------------------


    EDDIAG:  cpu time    0.3375: real time    0.3395
  RMM-DIIS:  cpu time    0.9034: real time    0.9142
    ORTHCH:  cpu time    0.0973: real time    0.0978
       DOS:  cpu time    0.0003: real time    0.0003
    --------------------------------------------
      LOOP:  cpu time    1.3385: real time    1.3519

 eigenvalue-minimisations  :  1347
 total energy-change (2. order) :-0.1913673E-02  (-0.1310058E-02)
 number of electron     400.0000000 magnetization     100.0000000
 augmentation part      400.0000000 magnetization     100.0000000

 Free energy of the ion-electron system (eV)
  ---------------------------------------------------
  alpha Z        PSCENC =       316.14514549
  Ewald energy   TEWEN  =    -14914.21071787
  -Hartree energ DENC   =       -94.66806024
  -exchange      EXHF   =         0.00000000
  -V(xc)+E(xc)   XCENC  =      -777.34764819
  PAW double counting   =      8803.41707833    -7043.47671478
  entropy T*S    EENTRO =        -0.06083502
  eigenvalues    EBANDS =      3007.07033384
  atomic energy  EATOM  =     10306.12861560
  Solvation  Ediel_sol  =         0.00000000
  ---------------------------------------------------
  free energy    TOTEN  =      -397.00280284 eV

  energy without entropy =     -396.94196782  energy(sigma->0) =     -396.97238533


--------------------------------------------------------------------------------------------------------




--------------------------------------- Iteration      1(  12)  ---------------------------------------


    EDDIAG:  cpu time    0.3364: real time    0.3385
  RMM-DIIS:  cpu time    0.7641: real time    0.7734
    ORTHCH:  cpu time    0.0969: real time    0.0975
       DOS:  cpu time    0.0003: real time    0.0003
    CHARGE:  cpu time    0.0445: real time    0.0448
    MIXING:  cpu time    0.0010: real time    0.0010
    --------------------------------------------
      LOOP:  cpu time    1.2433: real time    1.2555

 eigenvalue-minimisations  :  1077
 total energy-change (2. order) :-0.1144873E-04  (-0.1095822E-04)
 number of electron     399.9999945 magnetization      66.9232451
 augmentation part      -23.5531044 magnetization      41.5010238

 Broyden mixing:
  rms(total) = 0.62350E+01    rms(broyden)= 0.62349E+01
  rms(prec ) = 0.64082E+01
  weight for this iteration     100.00

 Free energy of the ion-electron system (eV)
  ---------------------------------------------------
  alpha Z        PSCENC =       316.14514549
  Ewald energy   TEWEN  =    -14914.21071787
  -Hartree energ DENC   =       -94.66806024
  -exchange      EXHF   =         0.00000000
  -V(xc)+E(xc)   XCENC  =      -777.34764819
  PAW double counting   =      8803.41707833    -7043.47671478
  entropy T*S    EENTRO =        -0.06083496
  eigenvalues    EBANDS =      3007.07032233
  atomic energy  EATOM  =     10306.12861560
  Solvation  Ediel_sol  =         0.00000000
  ---------------------------------------------------
  free energy    TOTEN  =      -397.00281429 eV

  energy without entropy =     -396.94197933  energy(sigma->0) =     -396.97239681


--------------------------------------------------------------------------------------------------------




--------------------------------------- Iteration      1(  13)  ---------------------------------------


    POTLOK:  cpu time    0.0528: real time    0.0532
    SETDIJ:  cpu time    0.0351: real time    0.0352
    EDDIAG:  cpu time    0.3375: real time    0.3394
  RMM-DIIS:  cpu time    0.8837: real time    0.8947
    ORTHCH:  cpu time    0.0986: real time    0.0993
       DOS:  cpu time    0.0004: real time    0.0004
    CHARGE:  cpu time    0.0446: real time    0.0448
    MIXING:  cpu time    0.0012: real time    0.0012
    --------------------------------------------
      LOOP:  cpu time    1.4541: real time    1.4681

 eigenvalue-minimisations  :  1346
 total energy-change (2. order) :-0.6280398E+01  (-0.1103280E+01)
 number of electron     399.9999944 magnetization      29.2852798
 augmentation part      -23.5741438 magnetization      12.3676735

 Broyden mixing:
  rms(total) = 0.37885E+01    rms(broyden)= 0.37885E+01
  rms(prec ) = 0.38622E+01
  weight for this iteration     100.00

 eigenvalues of (default mixing * dielectric matrix)
  average eigenvalue GAMMA=   1.2545
  1.2545

 Free energy of the ion-electron system (eV)
  ---------------------------------------------------
  alpha Z        PSCENC =       316.14514549
  Ewald energy   TEWEN  =    -14914.21071787
  -Hartree energ DENC   =      -115.13904039
  -exchange      EXHF   =         0.00000000
  -V(xc)+E(xc)   XCENC  =      -776.63966284
  PAW double counting   =     31329.31693304   -29575.95551196
  entropy T*S    EENTRO =        -0.05119023
  eigenvalues    EBANDS =      3027.12221711
  atomic energy  EATOM  =     10306.12861560
  Solvation  Ediel_sol  =         0.00000000
  ---------------------------------------------------
  free energy    TOTEN  =      -403.28321206 eV

  energy without entropy =     -403.23202183  energy(sigma->0) =     -403.25761695


--------------------------------------------------------------------------------------------------------




--------------------------------------- Iteration      1(  14)  ---------------------------------------


    POTLOK:  cpu time    0.0529: real time    0.0537
    SETDIJ:  cpu time    0.0351: real time    0.0352
    EDDIAG:  cpu time    0.3373: real time    0.3392
  RMM-DIIS:  cpu time    0.9100: real time    0.9211
    ORTHCH:  cpu time    0.0984: real time    0.0990
       DOS:  cpu time    0.0003: real time    0.0003
    CHARGE:  cpu time    0.0444: real time    0.0446
    MIXING:  cpu time    0.0013: real time    0.0013
    --------------------------------------------
      LOOP:  cpu time    1.4798: real time    1.4945

 eigenvalue-minimisations  :  1337
 total energy-change (2. order) :-0.8057373E+01  (-0.5606891E+00)
 number of electron     399.9999943 magnetization      11.5619783
 augmentation part      -23.6602961 magnetization       4.2401573

 Broyden mixing:
  rms(total) = 0.17446E+01    rms(broyden)= 0.17446E+01
  rms(prec ) = 0.19242E+01
  weight for this iteration     100.00

 eigenvalues of (default mixing * dielectric matrix)
  average eigenvalue GAMMA=   1.4849
  2.3850  0.5848

 Free energy of the ion-electron system (eV)
  ---------------------------------------------------
  alpha Z        PSCENC =       316.14514549
  Ewald energy   TEWEN  =    -14914.21071787
  -Hartree energ DENC   =      -127.08358012
  -exchange      EXHF   =         0.00000000
  -V(xc)+E(xc)   XCENC  =      -771.70965751
  PAW double counting   =     70435.31195120   -68687.95067668
  entropy T*S    EENTRO =        -0.05173270
  eigenvalues    EBANDS =      3032.08006735
  atomic energy  EATOM  =     10306.12861560
  Solvation  Ediel_sol  =         0.00000000
  ---------------------------------------------------
  free energy    TOTEN  =      -411.34058525 eV

  energy without entropy =     -411.28885255  energy(sigma->0) =     -411.31471890


--------------------------------------------------------------------------------------------------------




--------------------------------------- Iteration      1(  15)  ---------------------------------------


    POTLOK:  cpu time    0.0525: real time    0.0528
    SETDIJ:  cpu time    0.0351: real time    0.0352
    EDDIAG:  cpu time    0.3364: real time    0.3383
  RMM-DIIS:  cpu time    0.9197: real time    0.9310
    ORTHCH:  cpu time    0.0989: real time    0.0995
       DOS:  cpu time    0.0004: real time    0.0004
    CHARGE:  cpu time    0.0442: real time    0.0443
    MIXING:  cpu time    0.0014: real time    0.0014
    --------------------------------------------
      LOOP:  cpu time    1.4884: real time    1.5029

 eigenvalue-minimisations  :  1394
 total energy-change (2. order) :-0.6378631E+00  (-0.1087126E+00)
 number of electron     399.9999944 magnetization       8.0476108
 augmentation part      -23.7009803 magnetization       4.5027648

 Broyden mixing:
  rms(total) = 0.34058E+00    rms(broyden)= 0.34057E+00
  rms(prec ) = 0.39987E+00
  weight for this iteration     100.00

 eigenvalues of (default mixing * dielectric matrix)
  average eigenvalue GAMMA=   1.3097
  2.3928  0.9346  0.6018

 Free energy of the ion-electron system (eV)
  ---------------------------------------------------
  alpha Z        PSCENC =       316.14514549
  Ewald energy   TEWEN  =    -14914.21071787
  -Hartree energ DENC   =      -134.85713024
  -exchange      EXHF   =         0.00000000
  -V(xc)+E(xc)   XCENC  =      -768.96414041
  PAW double counting   =     90163.37412815   -88419.13515364
  entropy T*S    EENTRO =        -0.04151241
  eigenvalues    EBANDS =      3039.58231702
  atomic energy  EATOM  =     10306.12861560
  Solvation  Ediel_sol  =         0.00000000
  ---------------------------------------------------
  free energy    TOTEN  =      -411.97844833 eV

  energy without entropy =     -411.93693592  energy(sigma->0) =     -411.95769212


--------------------------------------------------------------------------------------------------------




--------------------------------------- Iteration      1(  16)  ---------------------------------------


    POTLOK:  cpu time    0.0525: real time    0.0528
    SETDIJ:  cpu time    0.0351: real time    0.0352
    EDDIAG:  cpu time    0.3360: real time    0.3379
  RMM-DIIS:  cpu time    0.9098: real time    0.9208
    ORTHCH:  cpu time    0.0985: real time    0.0991
       DOS:  cpu time    0.0004: real time    0.0004
    CHARGE:  cpu time    0.0441: real time    0.0443
    MIXING:  cpu time    0.0015: real time    0.0015
    --------------------------------------------
      LOOP:  cpu time    1.4778: real time    1.4920

 eigenvalue-minimisations  :  1402
 total energy-change (2. order) :-0.1283093E+00  (-0.3793560E-01)
 number of electron     399.9999944 magnetization       4.8223903
 augmentation part      -23.7115330 magnetization       2.0895672

 Broyden mixing:
  rms(total) = 0.21672E+00    rms(broyden)= 0.21671E+00
  rms(prec ) = 0.24084E+00
  weight for this iteration     100.00

 eigenvalues of (default mixing * dielectric matrix)
  average eigenvalue GAMMA=   1.3655
  2.3444  1.7230  0.7743  0.6204

 Free energy of the ion-electron system (eV)
  ---------------------------------------------------
  alpha Z        PSCENC =       316.14514549
  Ewald energy   TEWEN  =    -14914.21071787
  -Hartree energ DENC   =      -133.81750552
  -exchange      EXHF   =         0.00000000
  -V(xc)+E(xc)   XCENC  =      -768.83321937
  PAW double counting   =     89917.55666188   -88173.46738391
  entropy T*S    EENTRO =        -0.04142525
  eigenvalues    EBANDS =      3038.43307132
  atomic energy  EATOM  =     10306.12861560
  Solvation  Ediel_sol  =         0.00000000
  ---------------------------------------------------
  free energy    TOTEN  =      -412.10675765 eV

  energy without entropy =     -412.06533240  energy(sigma->0) =     -412.08604502


--------------------------------------------------------------------------------------------------------




--------------------------------------- Iteration      1(  17)  ---------------------------------------


    POTLOK:  cpu time    0.0537: real time    0.0540
    SETDIJ:  cpu time    0.0354: real time    0.0355
    EDDIAG:  cpu time    0.3362: real time    0.3381
  RMM-DIIS:  cpu time    0.9312: real time    0.9423
    ORTHCH:  cpu time    0.0991: real time    0.0997
       DOS:  cpu time    0.0004: real time    0.0004
    CHARGE:  cpu time    0.0441: real time    0.0443
    MIXING:  cpu time    0.0016: real time    0.0016
    --------------------------------------------
      LOOP:  cpu time    1.5017: real time    1.5159

 eigenvalue-minimisations  :  1427
 total energy-change (2. order) :-0.7402994E-01  (-0.9558438E-02)
 number of electron     399.9999944 magnetization       2.8099041
 augmentation part      -23.7187085 magnetization       0.7427197

 Broyden mixing:
  rms(total) = 0.11246E+00    rms(broyden)= 0.11246E+00
  rms(prec ) = 0.14161E+00
  weight for this iteration     100.00

 eigenvalues of (default mixing * dielectric matrix)
  average eigenvalue GAMMA=   1.3906
  2.3243  2.3243  0.9365  0.6154  0.7526

 Free energy of the ion-electron system (eV)
  ---------------------------------------------------
  alpha Z        PSCENC =       316.14514549
  Ewald energy   TEWEN  =    -14914.21071787
  -Hartree energ DENC   =      -133.08655938
  -exchange      EXHF   =         0.00000000
  -V(xc)+E(xc)   XCENC  =      -768.68863886
  PAW double counting   =     89261.33320273   -87517.35796796
  entropy T*S    EENTRO =        -0.04007810
  eigenvalues    EBANDS =      3037.59621076
  atomic energy  EATOM  =     10306.12861560
  Solvation  Ediel_sol  =         0.00000000
  ---------------------------------------------------
  free energy    TOTEN  =      -412.18078759 eV

  energy without entropy =     -412.14070949  energy(sigma->0) =     -412.16074854


--------------------------------------------------------------------------------------------------------




--------------------------------------- Iteration      1(  18)  ---------------------------------------


    POTLOK:  cpu time    0.0525: real time    0.0529
    SETDIJ:  cpu time    0.0350: real time    0.0351
    EDDIAG:  cpu time    0.3377: real time    0.3396
  RMM-DIIS:  cpu time    0.9321: real time    0.9435
    ORTHCH:  cpu time    0.0988: real time    0.0994
       DOS:  cpu time    0.0003: real time    0.0003
    CHARGE:  cpu time    0.0441: real time    0.0443
    MIXING:  cpu time    0.0018: real time    0.0019
    --------------------------------------------
      LOOP:  cpu time    1.5025: real time    1.5801

 eigenvalue-minimisations  :  1411
 total energy-change (2. order) :-0.2299906E-01  (-0.2378700E-02)
 number of electron     399.9999944 magnetization       1.7984923
 augmentation part      -23.7226689 magnetization       0.1041299

 Broyden mixing:
  rms(total) = 0.51129E-01    rms(broyden)= 0.51128E-01
  rms(prec ) = 0.66499E-01
  weight for this iteration     100.00

 eigenvalues of (default mixing * dielectric matrix)
  average eigenvalue GAMMA=   1.3672
  2.5371  2.4746  1.1212  0.8543  0.6080  0.6080

 Free energy of the ion-electron system (eV)
  ---------------------------------------------------
  alpha Z        PSCENC =       316.14514549
  Ewald energy   TEWEN  =    -14914.21071787
  -Hartree energ DENC   =      -132.89874412
  -exchange      EXHF   =         0.00000000
  -V(xc)+E(xc)   XCENC  =      -768.55556661
  PAW double counting   =     88959.95618999   -87216.07381628
  entropy T*S    EENTRO =        -0.04911841
  eigenvalues    EBANDS =      3037.35422556
  atomic energy  EATOM  =     10306.12861560
  Solvation  Ediel_sol  =         0.00000000
  ---------------------------------------------------
  free energy    TOTEN  =      -412.20378665 eV

  energy without entropy =     -412.15466824  energy(sigma->0) =     -412.17922745


--------------------------------------------------------------------------------------------------------




--------------------------------------- Iteration      1(  19)  ---------------------------------------


    POTLOK:  cpu time    0.0525: real time    0.1160
    SETDIJ:  cpu time    0.0350: real time    0.0351
    EDDIAG:  cpu time    0.3376: real time    0.3395
  RMM-DIIS:  cpu time    0.9294: real time    0.9411
    ORTHCH:  cpu time    0.0986: real time    0.0992
       DOS:  cpu time    0.0004: real time    0.0004
    CHARGE:  cpu time    0.0441: real time    0.0443
    MIXING:  cpu time    0.0019: real time    0.0019
    --------------------------------------------
      LOOP:  cpu time    1.4994: real time    1.5141

 eigenvalue-minimisations  :  1432
 total energy-change (2. order) :-0.4780586E-02  (-0.5705601E-03)
 number of electron     399.9999944 magnetization       1.3619780
 augmentation part      -23.7245958 magnetization       0.0258087

 Broyden mixing:
  rms(total) = 0.23007E-01    rms(broyden)= 0.23006E-01
  rms(prec ) = 0.29179E-01
  weight for this iteration     100.00

 eigenvalues of (default mixing * dielectric matrix)
  average eigenvalue GAMMA=   1.3298
  2.8414  2.3935  1.2026  0.9037  0.7905  0.5644  0.6125

 Free energy of the ion-electron system (eV)
  ---------------------------------------------------
  alpha Z        PSCENC =       316.14514549
  Ewald energy   TEWEN  =    -14914.21071787
  -Hartree energ DENC   =      -133.10796707
  -exchange      EXHF   =         0.00000000
  -V(xc)+E(xc)   XCENC  =      -768.47368920
  PAW double counting   =     88808.04437761   -87064.21680240
  entropy T*S    EENTRO =        -0.05699833
  eigenvalues    EBANDS =      3037.53946894
  atomic energy  EATOM  =     10306.12861560
  Solvation  Ediel_sol  =         0.00000000
  ---------------------------------------------------
  free energy    TOTEN  =      -412.20856724 eV

  energy without entropy =     -412.15156891  energy(sigma->0) =     -412.18006808


--------------------------------------------------------------------------------------------------------




--------------------------------------- Iteration      1(  20)  ---------------------------------------


    POTLOK:  cpu time    0.0524: real time    0.0528
    SETDIJ:  cpu time    0.0350: real time    0.0351
    EDDIAG:  cpu time    0.3381: real time    0.3400
  RMM-DIIS:  cpu time    0.9386: real time    0.9503
    ORTHCH:  cpu time    0.0988: real time    0.0995
       DOS:  cpu time    0.0004: real time    0.0004
    CHARGE:  cpu time    0.0444: real time    0.0446
    MIXING:  cpu time    0.0020: real time    0.0020
    --------------------------------------------
      LOOP:  cpu time    1.5096: real time    1.5245

 eigenvalue-minimisations  :  1439
 total energy-change (2. order) :-0.1487563E-02  (-0.1923344E-03)
 number of electron     399.9999944 magnetization       1.0565075
 augmentation part      -23.7249483 magnetization      -0.0384704

 Broyden mixing:
  rms(total) = 0.12881E-01    rms(broyden)= 0.12879E-01
  rms(prec ) = 0.15413E-01
  weight for this iteration     100.00

 eigenvalues of (default mixing * dielectric matrix)
  average eigenvalue GAMMA=   1.3406
  3.1542  2.3363  1.4800  1.1067  0.8659  0.6424  0.6202  0.5190

 Free energy of the ion-electron system (eV)
  ---------------------------------------------------
  alpha Z        PSCENC =       316.14514549
  Ewald energy   TEWEN  =    -14914.21071787
  -Hartree energ DENC   =      -133.19027772
  -exchange      EXHF   =         0.00000000
  -V(xc)+E(xc)   XCENC  =      -768.44983725
  PAW double counting   =     88696.61859927   -86952.80815617
  entropy T*S    EENTRO =        -0.06196146
  eigenvalues    EBANDS =      3037.61853531
  atomic energy  EATOM  =     10306.12861560
  Solvation  Ediel_sol  =         0.00000000
  ---------------------------------------------------
  free energy    TOTEN  =      -412.21005480 eV

  energy without entropy =     -412.14809334  energy(sigma->0) =     -412.17907407


--------------------------------------------------------------------------------------------------------




--------------------------------------- Iteration      1(  21)  ---------------------------------------


    POTLOK:  cpu time    0.0524: real time    0.0528
    SETDIJ:  cpu time    0.0350: real time    0.0351
    EDDIAG:  cpu time    0.3379: real time    0.3398
  RMM-DIIS:  cpu time    0.9174: real time    0.9287
    ORTHCH:  cpu time    0.0995: real time    0.1001
       DOS:  cpu time    0.0004: real time    0.0004
    CHARGE:  cpu time    0.0443: real time    0.0444
    MIXING:  cpu time    0.0021: real time    0.0022
    --------------------------------------------
      LOOP:  cpu time    1.4890: real time    1.5033

 eigenvalue-minimisations  :  1407
 total energy-change (2. order) :-0.8281092E-03  (-0.1099713E-03)
 number of electron     399.9999944 magnetization       0.8088557
 augmentation part      -23.7250384 magnetization      -0.0722204

 Broyden mixing:
  rms(total) = 0.88500E-02    rms(broyden)= 0.88484E-02
  rms(prec ) = 0.94518E-02
  weight for this iteration     100.00

 eigenvalues of (default mixing * dielectric matrix)
  average eigenvalue GAMMA=   1.3982
  3.6609  2.1235  2.0258  1.1094  1.1094  0.8227  0.6177  0.6177  0.4965

 Free energy of the ion-electron system (eV)
  ---------------------------------------------------
  alpha Z        PSCENC =       316.14514549
  Ewald energy   TEWEN  =    -14914.21071787
  -Hartree energ DENC   =      -133.20918253
  -exchange      EXHF   =         0.00000000
  -V(xc)+E(xc)   XCENC  =      -768.44004718
  PAW double counting   =     88642.66865231   -86898.86658951
  entropy T*S    EENTRO =        -0.06517171
  eigenvalues    EBANDS =      3037.63841249
  atomic energy  EATOM  =     10306.12861560
  Solvation  Ediel_sol  =         0.00000000
  ---------------------------------------------------
  free energy    TOTEN  =      -412.21088291 eV

  energy without entropy =     -412.14571121  energy(sigma->0) =     -412.17829706


--------------------------------------------------------------------------------------------------------




--------------------------------------- Iteration      1(  22)  ---------------------------------------


    POTLOK:  cpu time    0.0525: real time    0.0528
    SETDIJ:  cpu time    0.0349: real time    0.0350
    EDDIAG:  cpu time    0.3386: real time    0.3404
  RMM-DIIS:  cpu time    0.9103: real time    0.9213
    ORTHCH:  cpu time    0.0983: real time    0.0989
       DOS:  cpu time    0.0004: real time    0.0004
    CHARGE:  cpu time    0.0441: real time    0.0443
    MIXING:  cpu time    0.0024: real time    0.0024
    --------------------------------------------
      LOOP:  cpu time    1.4814: real time    1.4956

[...]
   0.773E+01 0.104E+02 -.130E+02   -.782E+01 -.860E+01 0.116E+02   -.165E+00 -.330E+01 0.302E+01   0.132E-03 0.414E-04 0.549E-03
   -.817E+01 0.626E+01 -.144E+01   0.100E+02 -.579E+01 0.272E+01   -.211E+01 -.556E+00 -.164E+01   0.109E-03 0.376E-03 -.224E-03
   -.719E+01 -.106E+02 -.899E+00   0.606E+01 0.112E+02 0.192E+01   0.215E+01 -.750E+00 -.946E+00   -.102E-03 0.326E-04 0.682E-03
   -.100E+00 -.524E+01 0.156E+01   0.852E+00 0.517E+01 -.337E+00   -.166E+01 0.969E+00 -.171E+01   -.119E-04 0.234E-03 0.185E-03
   0.338E+01 0.189E+02 -.566E+01   -.512E+01 -.186E+02 0.398E+01   0.195E+01 -.203E+00 0.242E+01   0.557E-04 -.171E-03 -.440E-03
   -.153E+02 -.129E+02 -.103E+02   0.139E+02 0.117E+02 0.962E+01   0.245E+01 0.235E+01 0.564E+00   0.154E-03 -.116E-03 -.469E-03
   0.431E+01 0.566E+01 0.342E+00   -.296E+01 -.562E+01 0.310E+01   -.286E+01 0.336E+00 -.365E+01   -.172E-04 0.301E-03 0.260E-03
   0.189E+01 -.806E+01 0.666E+01   -.243E+01 0.682E+01 -.509E+01   0.590E+00 0.244E+01 -.266E+01   -.430E-04 0.183E-03 -.574E-03
   0.544E+00 -.112E+01 -.170E+02   0.663E+00 0.643E+00 0.183E+02   -.149E+01 0.139E+01 -.132E+01   -.879E-04 0.234E-04 -.474E-03
   0.616E+01 -.216E+02 -.304E+01   -.564E+01 0.212E+02 0.378E+01   -.184E+01 0.128E+01 -.108E+01   0.200E-03 -.115E-03 -.593E-03
   0.754E+01 0.429E+01 0.122E+02   -.784E+01 -.497E+01 -.929E+01   -.190E+00 0.564E+00 -.485E+01   -.565E-04 0.478E-04 0.778E-04
   0.157E+01 0.453E+01 -.263E+01   -.338E+00 -.482E+01 0.105E+01   -.252E+01 0.508E+00 0.258E+01   -.149E-04 0.186E-03 0.421E-03
   -.112E+02 0.137E+02 0.687E+01   0.998E+01 -.136E+02 -.791E+01   0.245E+01 0.667E-01 0.844E+00   -.112E-03 -.257E-03 0.160E-03
   -.521E+01 0.508E+01 0.512E+01   0.371E+01 -.535E+01 -.443E+01   0.226E+01 -.651E+00 -.189E+01   0.118E-03 0.930E-04 -.522E-03
   0.138E+02 0.188E+02 -.233E+01   -.144E+02 -.188E+02 0.117E+01   0.545E+00 -.189E+01 0.212E+01   0.988E-05 -.942E-04 0.150E-04
   0.876E+01 -.660E+01 0.650E+01   -.747E+01 0.590E+01 -.748E+01   -.243E+01 0.149E+00 0.203E+01   0.295E-05 -.371E-04 -.950E-04
   0.550E+00 0.204E+02 0.285E+01   -.937E-01 -.197E+02 -.361E+01   -.446E+00 -.184E+01 0.969E+00   -.505E-05 -.225E-03 -.815E-04
   0.129E+00 -.110E+02 -.223E+02   -.577E+00 0.108E+02 0.226E+02   0.356E+00 0.124E+01 0.291E-01   -.175E-03 -.199E-03 -.324E-03
   0.563E+01 -.160E+02 0.266E+01   -.577E+01 0.156E+02 -.385E+01   -.555E+00 0.155E+01 0.185E+01   0.229E-03 -.208E-04 0.182E-03
   -.145E+02 -.296E+01 -.601E+01   0.146E+02 0.299E+01 0.481E+01   0.184E+00 -.789E-02 0.252E+01   0.760E-04 0.176E-03 0.831E-03
   0.833E+01 -.230E+01 0.835E+01   -.775E+01 0.241E+01 -.742E+01   -.143E+01 -.980E-01 -.174E+01   -.183E-04 -.525E-04 -.618E-04
   0.711E+00 -.257E+00 0.148E+02   0.934E+00 0.154E+01 -.137E+02   -.238E+01 -.214E+01 -.228E+01   0.338E-04 -.135E-03 0.588E-03
   -.185E+02 0.172E+01 0.223E+01   0.165E+02 -.260E+01 -.257E+01   0.409E+01 0.208E+01 -.741E+00   0.152E-03 -.374E-04 -.315E-03
   0.132E+01 0.542E+01 -.121E+02   0.540E+00 -.432E+01 0.107E+02   -.316E+01 -.210E+01 0.271E+01   -.128E-03 0.137E-03 0.868E-03
   -.313E+01 0.166E+02 0.927E+01   0.183E+01 -.177E+02 -.933E+01   0.184E+01 0.201E+00 -.158E-01   -.610E-04 0.159E-03 0.543E-03
   0.141E+02 -.121E+02 -.138E+02   -.137E+02 0.134E+02 0.149E+02   -.189E+01 -.108E+01 -.342E+00   -.853E-04 -.252E-03 -.384E-03
   0.154E+02 -.165E+01 -.260E+01   -.159E+02 0.287E+01 0.148E+01   -.871E+00 -.304E+00 0.121E+01   -.222E-03 0.204E-03 0.517E-03
   0.651E+01 0.177E+02 -.440E+01   -.598E+01 -.193E+02 0.554E+01   -.494E+00 0.192E+01 -.666E+00   -.318E-04 -.571E-04 0.170E-03
   -.114E+02 0.205E+02 0.104E+02   0.978E+01 -.197E+02 -.928E+01   0.225E+01 -.175E+01 -.290E+01   0.110E-03 0.732E-04 -.159E-03
   -.678E+01 0.144E+02 -.492E+01   0.480E+01 -.136E+02 0.467E+01   0.324E+01 -.223E+01 0.757E+00   0.138E-03 0.122E-03 0.156E-03
   -.569E+01 0.121E+01 0.171E+00   0.447E+01 -.252E+00 -.854E+00   0.195E+01 -.192E+01 0.483E+00   0.413E-03 0.256E-03 0.320E-03
   -.961E+01 -.525E+01 0.514E+00   0.692E+01 0.600E+01 0.703E+00   0.557E+01 -.741E+00 -.539E+00   -.155E-03 0.146E-03 0.873E-04
   -.160E+02 -.181E+02 0.963E+01   0.173E+02 0.162E+02 -.897E+01   -.315E+00 0.258E+01 -.155E+01   0.168E-04 0.274E-03 0.171E-03
   -.115E+02 0.569E+01 0.539E+01   0.105E+02 -.598E+01 -.609E+01   0.183E+01 0.804E+00 0.102E+01   0.852E-04 -.204E-03 0.670E-04
   0.632E+01 0.105E+02 0.153E+02   -.637E+01 -.934E+01 -.136E+02   -.363E+00 -.230E+01 -.291E+01   0.173E-03 0.144E-03 -.499E-03
   -.566E+01 0.748E+01 -.441E+01   0.615E+01 -.695E+01 0.522E+01   -.364E+00 -.164E+01 -.704E+00   0.954E-05 -.202E-03 0.510E-03
   -.781E+01 0.912E+00 0.807E+01   0.670E+01 -.221E+01 -.701E+01   0.185E+01 0.156E+01 -.117E+01   0.713E-04 0.707E-04 -.692E-03
   0.105E+02 0.190E+02 -.119E+02   -.129E+02 -.159E+02 0.119E+02   0.312E+01 -.496E+01 0.615E+00   0.126E-03 0.747E-04 -.332E-03
   -.725E+01 -.240E+02 0.120E+02   0.635E+01 0.236E+02 -.132E+02   0.194E+01 0.108E+01 0.666E+00   -.965E-04 0.262E-04 0.179E-03
   -.109E+02 -.144E+01 0.164E+02   0.105E+02 0.191E+01 -.163E+02   0.178E+01 -.347E+00 -.336E-01   -.830E-04 -.181E-03 0.467E-03
   -.481E+01 0.105E+02 0.283E+02   0.564E+01 -.101E+02 -.259E+02   0.203E-01 -.452E+00 -.501E+01   0.626E-04 0.277E-03 0.457E-03
   0.145E+01 -.125E+02 0.104E+02   -.231E+01 0.121E+02 -.946E+01   0.148E+01 0.149E+01 -.133E+01   0.576E-04 -.192E-03 0.561E-03
   0.184E+02 0.250E+00 0.258E+01   -.186E+02 -.144E+01 -.260E+01   -.122E+01 0.240E+01 0.433E+00   0.721E-04 -.103E-03 0.539E-03
   -.161E+01 0.716E+01 -.108E+02   0.234E+01 -.850E+01 0.924E+01   -.209E+00 0.104E+01 0.318E+01   -.562E-04 0.791E-04 0.711E-03
   -.161E+01 0.119E+02 0.362E+01   0.320E+01 -.111E+02 -.436E+01   -.232E+01 -.912E+00 0.124E+01   0.255E-03 0.416E-04 0.280E-03
   0.177E+01 0.637E+01 0.595E+00   -.309E+01 -.502E+01 -.124E+01   0.221E+01 -.222E+01 0.355E+00   -.116E-03 -.134E-03 0.865E-04
   -.868E+01 -.125E+01 -.679E+01   0.867E+01 0.133E+00 0.651E+01   0.732E+00 0.195E+01 0.126E+01   -.271E-04 0.827E-04 -.659E-03
   -.224E+01 -.168E+02 -.333E+01   0.938E+00 0.161E+02 0.383E+01   0.175E+01 0.167E+01 -.788E+00   0.162E-04 0.212E-03 0.611E-03
   -.101E+02 0.235E+02 0.112E+02   0.102E+02 -.225E+02 -.970E+01   0.744E+00 -.204E+01 -.260E+01   -.104E-03 -.190E-03 -.375E-03
   -.348E+00 -.693E+01 -.518E+01   0.432E+00 0.526E+01 0.674E+01   -.422E+00 0.305E+01 -.906E+00   0.599E-05 0.811E-04 -.592E-04
   0.293E+01 0.785E+01 0.785E+01   -.283E+00 -.833E+01 -.915E+01   -.393E+01 0.118E+01 0.141E+01   0.443E-04 -.266E-04 0.579E-03
   0.743E+01 -.324E+01 0.506E+00   -.643E+01 0.332E+01 -.455E+00   -.182E+01 -.403E+00 -.867E+00   -.293E-04 -.299E-03 -.385E-03
   -.299E+01 0.121E+02 0.665E+01   0.246E+01 -.127E+02 -.624E+01   0.534E+00 0.145E+00 -.982E+00   -.582E-04 0.113E-04 -.602E-03
   -.646E+01 -.721E+01 0.467E+01   0.508E+01 0.519E+01 -.475E+01   0.284E+01 0.280E+01 0.355E+00   -.169E-04 0.119E-03 0.397E-03
   -.418E+01 0.200E+02 0.477E+01   0.498E+01 -.177E+02 -.533E+01   -.140E+01 -.369E+01 0.509E+00   -.164E-03 -.225E-03 0.453E-04
   -.403E+01 -.574E+00 -.235E+01   0.289E+01 -.348E+00 0.292E+01   0.204E+01 0.923E+00 -.890E-01   -.137E-04 -.187E-03 0.367E-03
   -.279E+01 -.273E+00 -.150E+02   0.138E+01 0.667E+00 0.130E+02   0.197E+01 -.140E+01 0.318E+01   -.221E-03 -.594E-04 -.403E-03
   -.194E+01 0.131E+02 -.109E+02   0.129E+01 -.132E+02 0.120E+02   0.209E+01 -.590E-01 -.616E+00   0.409E-04 0.104E-03 0.216E-03
   0.148E+02 0.522E+01 -.958E+01   -.149E+02 -.689E+01 0.978E+01   -.145E+01 0.181E+01 0.899E+00   -.927E-04 0.231E-03 -.344E-04
   -.816E+01 0.484E+00 0.979E+00   0.584E+01 -.243E+01 -.806E-01   0.366E+01 0.303E+01 -.106E+01   0.301E-04 -.401E-04 0.677E-03
   0.121E+02 -.381E-01 -.373E+01   -.105E+02 -.915E+00 0.454E+01   -.349E+01 0.190E+01 -.656E+00   -.708E-04 0.188E-03 -.546E-03
   0.640E+01 -.149E+02 -.102E+02   -.686E+01 0.146E+02 0.867E+01   0.114E+00 0.855E+00 0.318E+01   0.253E-03 0.283E-03 -.403E-03
   -.365E+01 -.311E+01 -.117E+02   0.342E+01 0.316E+01 0.140E+02   0.558E+00 -.550E+00 -.287E+01   -.115E-03 -.257E-03 -.437E-03
   0.168E+00 -.937E+01 0.313E+01   0.937E+00 0.849E+01 -.310E+01   -.215E+01 0.190E+01 0.469E+00   0.796E-04 0.119E-03 0.584E-03
   0.135E+01 0.217E+00 -.542E+01   -.225E+01 0.320E+00 0.363E+01   0.892E+00 -.609E+00 0.295E+01   -.183E-03 -.154E-03 0.104E-03
   0.753E+01 0.585E+01 -.655E+01   -.764E+01 -.761E+01 0.654E+01   0.274E+00 0.199E+01 0.696E+00   0.694E-04 0.442E-04 -.487E-03
   0.566E+01 -.374E+00 0.624E+01   -.571E+01 0.527E+00 -.536E+01   -.158E+00 -.867E+00 -.194E+01   0.100E-03 -.344E-03 -.318E-04
   0.201E+01 -.449E+01 0.272E+02   0.522E+00 0.410E+01 -.271E+02   -.352E+01 0.920E+00 -.232E+01   0.552E-04 -.189E-03 0.388E-03
   0.237E+02 0.132E+02 -.248E+00   -.242E+02 -.112E+02 -.903E+00   -.299E+00 -.324E+01 0.125E+01   -.894E-04 0.130E-03 -.889E-04
   -.802E+01 0.232E+01 -.558E+01   0.772E+01 -.440E+00 0.639E+01   0.997E+00 -.243E+01 -.368E+00   -.257E-03 0.964E-04 0.180E-03
   -.437E+01 -.263E+01 -.219E+01   0.651E+01 0.146E+01 0.450E+00   -.288E+01 0.611E+00 0.187E+01   0.728E-04 0.134E-04 -.534E-03
 -----------------------------------------------------------------------------------------------
   -.216E+01 -.186E+01 0.113E+02   0.284E-13 -.413E-13 0.702E-13   0.216E+01 0.185E+01 -.113E+02   -.711E-04 0.547E-04 0.257E-03
 
 
 POSITION                                       TOTAL-FORCE (eV/Angst)
 -----------------------------------------------------------------------------------
      8.40704      7.84771      0.94367        -0.033493     -0.384496      0.035454
      8.33811      9.19033      9.25413        -0.688582      0.350645      0.417222
      7.08685      1.43130      4.29530        -0.354072      0.461310     -1.404417
      8.04929      2.24856      8.74316        -0.757912     -0.989703     -0.290301
      3.12831     10.11820      4.13257         0.723389      0.792961     -0.041581
      6.24780      8.16378      8.65188        -0.511134     -0.458771     -0.461562
      5.06567      5.90456      4.48405         0.453171     -0.223006      0.304634
      5.12327      5.57662      2.20470        -1.020884     -0.976351     -0.416503
      5.62518      9.84149      2.84743        -1.083535      0.683131     -0.875884
      0.12264      0.01834      8.97006        -0.849722      1.225080     -0.032113
      1.90384      1.94485      4.51756         1.073050      0.397321      0.373531
      8.28806      4.26949      4.24160         1.363743      0.030715     -0.140321
      9.96396      2.24668      7.91676         1.721651      1.257630      0.140928
      7.87107      3.25226      6.45691         0.114624      0.513398      0.280605
      9.10144      1.87305      5.33320         1.134598      1.238035     -0.946694
      0.83200     10.15309      4.36770        -0.822063      0.213018     -1.386903
      0.51551      0.82587      6.40891         0.366183     -1.541108      0.295932
      1.85269      2.71080     10.02425        -0.446263      1.021199      0.915645
      4.48059      2.01461      3.71200        -0.539914      0.429253     -0.100984
      6.17788      7.47319      3.06217         0.550462      1.029494     -0.027445
      5.83976      7.03934      0.47639        -0.406793     -0.527748      0.511542
     10.20308      3.96907      6.29490        -1.864620      1.003992     -0.186881
      6.29760      2.54520     10.19100        -0.288023      0.294534      0.130089
      3.27784      6.68674      3.20730        -0.814536     -2.136631     -1.203363
      9.14429      0.79573      3.25053         0.225386     -0.206652      0.243934
      0.21445      3.83391      1.30783         0.807753     -0.551273      0.904301
      1.82788      0.46842      0.26559         0.825959     -0.563038      0.411693
      0.42414      3.61578      3.91654        -1.512799     -0.696649      0.294170
      2.98150      4.47783      0.75476        -0.642150     -0.616722      0.663376
      6.48382      0.74160      8.67939        -0.254678     -1.501944      1.643274
      6.85251      9.16976      4.66009        -0.234987     -0.089936     -0.361469
      1.86581      1.34347      8.30005         1.022269     -0.091153      0.070505
      2.31727      8.37072      0.49967        -0.911746      0.899537     -0.488774
      0.96204      5.96192      4.39491         0.211254      0.089093      0.743578
      2.40876      3.04992      2.51238         1.026901      1.170601     -0.127486
      0.17926      8.16671      9.99571        -1.515559      0.375736     -0.211637
      4.19104      8.32764      1.97374         0.045156      1.202575     -1.094701
      7.51586      5.96250      2.23969        -0.279716      0.910276     -0.076305
      0.99567      1.34205      2.39640        -1.314979      0.949587     -0.329442
      4.97407      0.54388      0.66629        -0.487327     -0.108955     -1.895994
      7.94960      6.65279      9.28282        -1.296297      0.224975      1.000816
      4.27254      5.07061      6.58863         1.248813      0.153031     -0.194200
      9.93182      9.73836      1.46129         0.763546     -0.917442     -1.206124
      9.11233      5.97506      5.83630        -0.041902     -1.890135      0.960585
      4.64748      2.90275      5.82126        -1.143134     -0.556633      1.049972
      2.10959      4.92620      6.13185         0.010706     -1.225169      0.206735
      8.81423      2.65598      2.27113        -0.092846      1.078236      0.350266
      6.49690      1.48812      6.42182        -0.692583      1.188620      0.661117
      4.27012      0.75020      8.33822         0.266878      0.023282      1.326457
      8.09516      0.76200      0.63907        -0.846204      0.017760     -0.808026
      3.71859      3.03135      7.99847        -0.730111     -0.855812     -1.224895
      1.50886      5.14099      2.45441         2.113964      1.196330     -1.082030
      2.54405      9.47585      8.46546        -1.301847     -1.003511      1.319996
      9.88380      6.27401      8.32263         0.534154     -0.835209     -0.073654
      4.84901      3.31026      1.82276        -1.484936      0.275185      0.737547
      0.24958      8.56265      7.53791        -1.300294      0.919807      0.081279
      0.96673      6.64175      6.51379         0.030430      0.316188      0.468363
      7.63154      7.17191      4.88708         0.611380     -1.015319     -1.821603
      1.17654      6.22762      0.15335         1.259597     -1.428143      0.504998
      6.35142      9.57383      6.85807         0.737551     -0.958426     -0.199694
      6.31481      9.15922      0.57648         2.882638      0.003721      0.677996
      3.26348      0.95735      6.32897         0.967038      0.632969     -0.892584
      6.66942      5.11370      5.93838         0.859352      0.517707      0.320935
      1.12490      7.43441      2.35511        -0.412548     -1.116631     -1.160205
      4.63150      4.71821      9.41231         0.126268     -1.105872      0.106743
      1.91901      9.47221      2.38055         0.737107      0.263927     -0.107403
      9.52329      5.88749      2.92094         0.776084     -1.804337      0.610511
      1.79334      2.76372      6.64092         1.033094      0.700642     -0.571275
      8.26320      4.58647      8.16721         1.379784      0.120437      0.024239
      8.16639      7.86023      7.38016         0.846710     -0.019463     -2.561463
      5.94509      3.13429      7.96017         0.622699      1.070402     -0.421509
      2.48814      4.80627      8.44781        -1.374769      1.209342      0.418775
      1.99846      7.19375      8.34448         0.518732     -0.292579      1.654625
      5.93130      7.31074      6.31079        -0.731631     -0.143544      0.507031
      6.56190      4.96494      0.23635         0.891200     -0.873387     -0.285882
      4.42514      8.19547      4.42783         0.722120      0.826292      0.981439
      4.27455      8.62332      9.65209         0.452069      0.980539     -0.283335
      3.19398      4.52965      4.28872         0.832579     -1.041543     -1.127481
      9.26217      5.63756      0.62167        -0.338147      1.382919      0.649577
      6.32875      5.69879      8.06890        -1.286058      0.695818      0.105155
      6.07622      3.69064      4.29086        -0.820410     -0.323279     -0.816459
      1.99462      8.09029      4.40039         0.004691     -0.495991     -0.577473
      8.44297      0.19395      7.31883         1.465850      0.775813      0.283328
      3.25902      7.19640      6.13382        -0.602843     -1.376613     -0.044528
      3.95857      2.34309     10.11843         0.896951      0.000295      0.484504
      6.50881      1.64564      2.05333         0.554352     -1.004624      1.223546
      3.51614      6.55191      0.42962         1.442858     -0.096740      0.474414
      8.88423      9.84214      5.11948        -1.571327      0.137258      1.100683
      4.15448      6.62827      8.29656         1.331321      1.082579     -0.165636
      7.82273      9.41228      2.43260        -1.977535      0.942608      0.154505
      5.11256      0.22771      5.04023        -0.341535      0.621626      1.693336
      6.98432      3.87278      2.28404         0.335079     -0.503270     -0.548551
      4.33594      8.81738      7.13813        -1.049502      1.016851      0.507167
      8.39981      3.66281      0.11407        -0.004913     -0.072835      1.163169
      9.32987      8.04498      3.17650         0.157540      0.231042      0.680716
     10.02998      1.80798      0.33017        -0.202233     -0.713453     -1.057335
      0.40189      4.19049      9.26239        -0.992243      0.532419     -2.203841
     10.13164      8.14419      5.29746        -0.765700     -1.227584      0.096096
      2.00521      9.31324      6.25823         0.695150     -0.552526      0.442001
      3.38687      1.04384      1.96618        -0.736801     -0.563531      0.126904
 -----------------------------------------------------------------------------------
    total drift:                                0.003214     -0.005125      0.002212


--------------------------------------------------------------------------------------------------------



  FREE ENERGIE OF THE ION-ELECTRON SYSTEM (eV)
  ---------------------------------------------------
  free  energy   TOTEN  =      -412.21207977 eV

  energy  without entropy=     -412.14084828  energy(sigma->0) =     -412.17646402
 


--------------------------------------------------------------------------------------------------------


    POTLOK:  cpu time    0.0890: real time    0.0894


--------------------------------------------------------------------------------------------------------


     LOOP+:  cpu time   36.5377: real time   37.4217
    4ORBIT:  cpu time    0.0000: real time    0.0000

 total amount of memory used by VASP MPI-rank0    53945. kBytes
=======================================================================

   base      :      30000. kBytes
   nonlr-proj:       8277. kBytes
   fftplans  :       1377. kBytes
   grid      :       7520. kBytes
   one-center:        614. kBytes
   wavefun   :       6157. kBytes
 
  
  
 General timing and accounting informations for this job:
 ========================================================
  
                  Total CPU time used (sec):       37.650
                            User time (sec):       36.244
                          System time (sec):        1.405
                         Elapsed time (sec):       39.925
  
                   Maximum memory used (kb):      185700.
                   Average memory used (kb):           0.
  
                          Minor page faults:       108518
                          Major page faults:            0
                 Voluntary context switches:          847
