<?xml version="1.0" encoding="ISO-8859-1"?>
<modeling>
 <generator>
  <i name="program" type="string">vasp </i>
  <i name="version" type="string">5.4.4.18Apr17-6-g9f103f2a35  </i>
  <i name="subversion" type="string">(build Sep 16 2020 16:20:45) complex            parallel </i>
  <i name="platform" type="string">LinuxIFC </i>
  <i name="date" type="string">2021 08 09 </i>
  <i name="time" type="string">15:23:02 </i>
 </generator>
 <incar>
  <i type="string" name="PREC">normal</i>
  <i type="string" name="ALGO"> Very Fast</i>
  <i type="int" name="ISPIN">     2</i>
  <i type="int" name="NELM">    60</i>
  <i type="int" name="NELMIN">     4</i>
  <i name="EDIFF">      0.00001000</i>
  <i type="int" name="ISYM">     0</i>
  <i type="string" name="LREAL"> auto</i>
  <i type="int" name="ISMEAR">     0</i>
  <i name="SIGMA">      0.05000000</i>
  <i type="logical" name="LWAVE"> F  </i>
  <i type="logical" name="LCHARG"> F  </i>
  <v type="int" name="KPOINT_BSE">    -1     0     0     0</v>
  <i type="int" name="NELM">    60</i>
 </incar>
 <structure name="primitive_cell" >
  <crystal>
   <varray name="basis" >
    <v>      10.21149500       0.00000000       0.00000000 </v>
    <v>       0.00000000      10.21149500       0.00000000 </v>
    <v>       0.00000000       0.00000000      10.21149500 </v>
   </varray>
   <i name="volume">   1064.79986425 </i>
   <varray name="rec_basis" >
    <v>       0.09792885       0.00000000       0.00000000 </v>
    <v>       0.00000000       0.09792885       0.00000000 </v>
    <v>       0.00000000       0.00000000       0.09792885 </v>
   </varray>
  </crystal>
  <varray name="positions" >
   <v>      -0.17670782      -0.23148266       0.09241282 </v>
   <v>      -0.23392921      -0.07826572       0.23822173 </v>
   <v>      -0.22150488      -0.34849971      -0.09094378 </v>
   <v>       0.01755463      -0.20024335      -0.02113197 </v>
   <v>      -0.18345864      -0.10000122      -0.09375415 </v>
   <v>      -0.09296641      -0.44791982       0.06087972 </v>
   <v>      -0.08633623      -0.21216413       0.31107110 </v>
   <v>      -0.26398035      -0.41609960       0.21933057 </v>
   <v>      -0.02738835      -0.04633386       0.14310245 </v>
   <v>      -0.38159770      -0.10304828       0.05645383 </v>
   <v>      -0.42811890      -0.31064589       0.04665193 </v>
   <v>      -0.06739562      -0.42344524       0.28604440 </v>
   <v>      -0.39500749      -0.26815897       0.29987509 </v>
   <v>      -0.20725026       0.07462149       0.06258388 </v>
   <v>       0.11016036      -0.27195636       0.23063342 </v>
   <v>      -0.38816001      -0.20053068      -0.15273160 </v>
   <v>       0.11521741      -0.39013670       0.01501768 </v>
   <v>      -0.35740036       0.48621079       0.02314509 </v>
   <v>      -0.03209050      -0.38559310      -0.18497399 </v>
   <v>       0.01200950       0.00179592      -0.12157231 </v>
   <v>      -0.20027489      -0.23025649      -0.27726910 </v>
   <v>      -0.44913237      -0.03623377       0.27884565 </v>
   <v>      -0.10451065       0.07792473       0.31832058 </v>
   <v>      -0.25265184      -0.29766356       0.47858604 </v>
   <v>       0.22692789      -0.18026489       0.04893201 </v>
   <v>      -0.49828394      -0.45388809       0.21590355 </v>
   <v>       0.02444157      -0.16146989      -0.26182111 </v>
   <v>      -0.32894184      -0.10201562       0.45635708 </v>
   <v>      -0.17741663       0.35869459       0.01117055 </v>
   <v>      -0.38023287      -0.44192364      -0.20982168 </v>
   <v>       0.18792606      -0.07239694       0.23312473 </v>
   <v>       0.41042394      -0.18448366       0.19328649 </v>
   <v>      -0.36504733       0.07262443      -0.15003729 </v>
   <v>      -0.19079449       0.44914785      -0.20019449 </v>
   <v>      -0.31603325       0.37925681       0.22367303 </v>
   <v>       0.41860139      -0.15552855      -0.05478150 </v>
   <v>       0.48710517       0.05326125       0.06524951 </v>
   <v>       0.02100094       0.37545061       0.12807439 </v>
   <v>      -0.01777585       0.17705321       0.03233337 </v>
   <v>       0.14776122      -0.49654845       0.24035795 </v>
   <v>      -0.36259960       0.16115535       0.20108016 </v>
   <v>      -0.17318923       0.01899379      -0.28327498 </v>
   <v>      -0.12997783      -0.03617061      -0.49865529 </v>
   <v>       0.17900258       0.04587213       0.02600853 </v>
   <v>       0.03935672       0.41036998      -0.09294476 </v>
   <v>      -0.00781991      -0.20244842      -0.48122552 </v>
   <v>       0.19570719      -0.29552382      -0.18283483 </v>
   <v>       0.09421118      -0.41615650       0.43038820 </v>
   <v>       0.09750482       0.13142571       0.23467651 </v>
   <v>      -0.18835959       0.41810665       0.41537483 </v>
   <v>       0.08147720      -0.00571944       0.42772356 </v>
   <v>      -0.37801311      -0.06244629      -0.32839746 </v>
   <v>       0.34433136      -0.35837936       0.04207239 </v>
   <v>       0.19533124      -0.20772727       0.43092554 </v>
   <v>       0.45355768       0.46204919      -0.07826366 </v>
   <v>      -0.13683276       0.26009737       0.22240945 </v>
   <v>      -0.21174245       0.22019881      -0.14379236 </v>
   <v>      -0.30599290       0.14016537       0.42063332 </v>
   <v>       0.49607506      -0.42177311       0.43911827 </v>
   <v>       0.40684356      -0.35090073      -0.18752749 </v>
   <v>      -0.10764046      -0.41486942      -0.42845773 </v>
   <v>       0.43334899      -0.19742663       0.43361192 </v>
   <v>       0.24913580      -0.07204097      -0.17098740 </v>
   <v>      -0.38328276       0.24924822      -0.00200754 </v>
   <v>      -0.41915430      -0.28406810      -0.38199206 </v>
   <v>       0.09467066      -0.34958143      -0.36211172 </v>
   <v>       0.04153574       0.35408929       0.38354188 </v>
   <v>       0.32099492      -0.34517522       0.31408741 </v>
   <v>       0.42461334      -0.13652379      -0.30097072 </v>
   <v>      -0.40496254       0.36141975       0.42019900 </v>
   <v>       0.47485780       0.32417007       0.17850090 </v>
   <v>      -0.02424121       0.22001499      -0.22472047 </v>
   <v>       0.29197498       0.43850837       0.07391288 </v>
   <v>      -0.49933315       0.02229918       0.49358414 </v>
   <v>       0.41816786       0.07346603      -0.18344777 </v>
   <v>       0.24366109       0.47067222      -0.17271555 </v>
   <v>       0.18271673       0.13156428      -0.18718581 </v>
   <v>      -0.34687154      -0.49922093      -0.41846165 </v>
   <v>      -0.10870622       0.18342603      -0.47772564 </v>
   <v>       0.33167279       0.10222235       0.19254566 </v>
   <v>       0.05048350       0.08087670      -0.37238318 </v>
   <v>      -0.41780376       0.30693782      -0.22047007 </v>
   <v>       0.30635162      -0.00913588       0.40469755 </v>
   <v>       0.18143171       0.26546534      -0.01833669 </v>
   <v>       0.19636743      -0.08796547      -0.38713891 </v>
   <v>      -0.36376603       0.14573018      -0.37111814 </v>
   <v>      -0.00082446       0.38868648      -0.38354727 </v>
   <v>       0.43877934       0.19728874       0.36351181 </v>
   <v>       0.38765773       0.22945631      -0.00911385 </v>
   <v>       0.23588750       0.29867537       0.24603440 </v>
   <v>      -0.22919543       0.31849000      -0.36768230 </v>
   <v>       0.18644136       0.19045664       0.44239967 </v>
   <v>       0.41840504       0.49655863      -0.35478272 </v>
   <v>       0.31278309       0.44358324       0.41998924 </v>
   <v>       0.20658973       0.48241663      -0.39951476 </v>
   <v>       0.31915180      -0.29526529      -0.39932165 </v>
   <v>       0.36415726       0.29685634      -0.21671910 </v>
   <v>       0.17562002       0.27064823      -0.34966271 </v>
   <v>       0.31958866       0.09375199      -0.38021083 </v>
   <v>       0.45512239       0.28426288      -0.42993058 </v>
  </varray>
 </structure>
 <varray name="primitive_index" >
  <v type="int" >        1 </v>
  <v type="int" >       90 </v>
  <v type="int" >       41 </v>
  <v type="int" >       36 </v>
  <v type="int" >        2 </v>
  <v type="int" >       79 </v>
  <v type="int" >       95 </v>
  <v type="int" >       38 </v>
  <v type="int" >       43 </v>
  <v type="int" >       61 </v>
  <v type="int" >       21 </v>
  <v type="int" >       67 </v>
  <v type="int" >       20 </v>
  <v type="int" >       50 </v>
  <v type="int" >       64 </v>
  <v type="int" >        6 </v>
  <v type="int" >       59 </v>
  <v type="int" >       75 </v>
  <v type="int" >       54 </v>
  <v type="int" >       10 </v>
  <v type="int" >       70 </v>
  <v type="int" >        9 </v>
  <v type="int" >       25 </v>
  <v type="int" >       58 </v>
  <v type="int" >       33 </v>
  <v type="int" >        8 </v>
  <v type="int" >       56 </v>
  <v type="int" >       31 </v>
  <v type="int" >       94 </v>
  <v type="int" >       80 </v>
  <v type="int" >       66 </v>
  <v type="int" >       37 </v>
  <v type="int" >       30 </v>
  <v type="int" >       69 </v>
  <v type="int" >       92 </v>
  <v type="int" >       77 </v>
  <v type="int" >       40 </v>
  <v type="int" >       26 </v>
  <v type="int" >       96 </v>
  <v type="int" >       52 </v>
  <v type="int" >       86 </v>
  <v type="int" >       83 </v>
  <v type="int" >       88 </v>
  <v type="int" >       27 </v>
  <v type="int" >       97 </v>
  <v type="int" >       98 </v>
  <v type="int" >       73 </v>
  <v type="int" >       34 </v>
  <v type="int" >       39 </v>
  <v type="int" >       12 </v>
  <v type="int" >       16 </v>
  <v type="int" >       60 </v>
  <v type="int" >       87 </v>
  <v type="int" >       82 </v>
  <v type="int" >       65 </v>
  <v type="int" >       47 </v>
  <v type="int" >        4 </v>
  <v type="int" >        3 </v>
  <v type="int" >        7 </v>
  <v type="int" >       89 </v>
  <v type="int" >       44 </v>
  <v type="int" >       76 </v>
  <v type="int" >       53 </v>
  <v type="int" >       23 </v>
  <v type="int" >       74 </v>
  <v type="int" >       57 </v>
  <v type="int" >       28 </v>
  <v type="int" >       24 </v>
  <v type="int" >       93 </v>
  <v type="int" >       81 </v>
  <v type="int" >       55 </v>
  <v type="int" >       13 </v>
  <v type="int" >       29 </v>
  <v type="int" >       91 </v>
  <v type="int" >       49 </v>
  <v type="int" >       72 </v>
  <v type="int" >       32 </v>
  <v type="int" >       63 </v>
  <v type="int" >       15 </v>
  <v type="int" >      100 </v>
  <v type="int" >       17 </v>
  <v type="int" >       71 </v>
  <v type="int" >        5 </v>
  <v type="int" >       18 </v>
  <v type="int" >       99 </v>
  <v type="int" >       48 </v>
  <v type="int" >       22 </v>
  <v type="int" >       19 </v>
  <v type="int" >       85 </v>
  <v type="int" >       35 </v>
  <v type="int" >       14 </v>
  <v type="int" >       11 </v>
  <v type="int" >       42 </v>
  <v type="int" >       78 </v>
  <v type="int" >       46 </v>
  <v type="int" >       84 </v>
  <v type="int" >       51 </v>
  <v type="int" >       68 </v>
  <v type="int" >       62 </v>
  <v type="int" >       45 </v>
 </varray>
 <kpoints>
  <generation param="Gamma">
   <v type="int" name="divisions">       1        1        1 </v>
   <v name="usershift">      0.00000000       0.00000000       0.00000000 </v>
   <v name="genvec1">      1.00000000       0.00000000       0.00000000 </v>
   <v name="genvec2">      0.00000000       1.00000000       0.00000000 </v>
   <v name="genvec3">      0.00000000       0.00000000       1.00000000 </v>
   <v name="shift">      0.00000000       0.00000000       0.00000000 </v>
  </generation>
  <varray name="kpointlist" >
   <v>       0.00000000       0.00000000       0.00000000 </v>
  </varray>
  <varray name="weights" >
   <v>       1.00000000 </v>
  </varray>
 </kpoints>
 <parameters>
  <separator name="general" >
   <i type="string" name="SYSTEM">unknown system</i>
   <i type="logical" name="LCOMPAT"> F  </i>
  </separator>
  <separator name="electronic" >
   <i type="string" name="PREC">normal</i>
   <i name="ENMAX">    245.34500000</i>
   <i name="ENAUG">    322.06900000</i>
   <i name="EDIFF">      0.00001000</i>
   <i type="int" name="IALGO">    48</i>
   <i type="int" name="IWAVPR">    10</i>
   <i type="int" name="NBANDS">   304</i>
   <i name="NELECT">    400.00000000</i>
   <i type="int" name="TURBO">     0</i>
   <i type="int" name="IRESTART">     0</i>
   <i type="int" name="NREBOOT">     0</i>
   <i type="int" name="NMIN">     0</i>
   <i name="EREF">      0.00000000</i>
   <separator name="electronic smearing" >
    <i type="int" name="ISMEAR">     0</i>
    <i name="SIGMA">      0.05000000</i>
    <i name="KSPACING">      0.50000000</i>
    <i type="logical" name="KGAMMA"> T  </i>
   </separator>
   <separator name="electronic projectors" >
    <i type="logical" name="LREAL"> T  </i>
    <v name="ROPT">     -0.00050000</v>
    <i type="int" name="LMAXPAW">  -100</i>
    <i type="int" name="LMAXMIX">     2</i>
    <i type="logical" name="NLSPLINE"> F  </i>
   </separator>
   <separator name="electronic startup" >
    <i type="int" name="ISTART">     0</i>
    <i type="int" name="ICHARG">     2</i>
    <i type="int" name="INIWAV">     1</i>
   </separator>
   <separator name="electronic spin" >
    <i type="int" name="ISPIN">     2</i>
    <i type="logical" name="LNONCOLLINEAR"> F  </i>
    <v name="MAGMOM">      1.00000000      1.00000000      1.00000000      1.00000000      1.00000000      1.00000000      1.00000000      1.00000000      1.00000000      1.00000000      1.00000000      1.00000000      1.00000000      1.00000000      1.00000000      1.00000000      1.00000000      1.00000000      1.00000000      1.00000000
      1.00000000      1.00000000      1.00000000      1.00000000      1.00000000      1.00000000      1.00000000      1.00000000      1.00000000      1.00000000      1.00000000      1.00000000      1.00000000      1.00000000      1.00000000      1.00000000      1.00000000      1.00000000      1.00000000      1.00000000
      1.00000000      1.00000000      1.00000000      1.00000000      1.00000000      1.00000000      1.00000000      1.00000000      1.00000000      1.00000000      1.00000000      1.00000000      1.00000000      1.00000000      1.00000000      1.00000000      1.00000000      1.00000000      1.00000000      1.00000000
      1.00000000      1.00000000      1.00000000      1.00000000      1.00000000      1.00000000      1.00000000      1.00000000      1.00000000      1.00000000      1.00000000      1.00000000      1.00000000      1.00000000      1.00000000      1.00000000      1.00000000      1.00000000      1.00000000      1.00000000
      1.00000000      1.00000000      1.00000000      1.00000000      1.00000000      1.00000000      1.00000000      1.00000000      1.00000000      1.00000000      1.00000000      1.00000000      1.00000000      1.00000000      1.00000000      1.00000000      1.00000000      1.00000000      1.00000000      1.00000000
</v>
    <i name="NUPDOWN">     -1.00000000</i>
    <i type="logical" name="LSORBIT"> F  </i>
    <v name="SAXIS">      0.00000000      0.00000000      1.00000000</v>
    <i type="logical" name="LSPIRAL"> F  </i>
    <v name="QSPIRAL">      0.00000000      0.00000000      0.00000000</v>
    <i type="logical" name="LZEROZ"> F  </i>
   </separator>
   <separator name="electronic exchange-correlation" >
    <i type="logical" name="LASPH"> F  </i>
    <i type="logical" name="LMETAGGA"> F  </i>
   </separator>
   <separator name="electronic convergence" >
    <i type="int" name="NELM">    60</i>
    <i type="int" name="NELMDL">   -12</i>
    <i type="int" name="NELMIN">     4</i>
    <i name="ENINI">    245.34500000</i>
    <separator name="electronic convergence detail" >
     <i type="logical" name="LDIAG"> T  </i>
     <i type="logical" name="LSUBROT"> F  </i>
     <i name="WEIMIN">      0.00000000</i>
     <i name="EBREAK">      0.00000001</i>
     <i name="DEPER">      0.30000000</i>
     <i type="int" name="NRMM">     4</i>
     <i name="TIME">      0.40000000</i>
    </separator>
   </separator>
   <separator name="electronic mixer" >
    <i name="AMIX">      0.40000000</i>
    <i name="BMIX">      1.00000000</i>
    <i name="AMIN">      0.10000000</i>
    <i name="AMIX_MAG">      1.60000000</i>
    <i name="BMIX_MAG">      1.00000000</i>
    <separator name="electronic mixer details" >
     <i type="int" name="IMIX">     4</i>
     <i type="logical" name="MIXFIRST"> F  </i>
     <i type="int" name="MAXMIX">   -45</i>
     <i name="WC">    100.00000000</i>
     <i type="int" name="INIMIX">     1</i>
     <i type="int" name="MIXPRE">     1</i>
     <i type="int" name="MREMOVE">     5</i>
    </separator>
   </separator>
   <separator name="electronic dipolcorrection" >
    <i type="logical" name="LDIPOL"> F  </i>
    <i type="logical" name="LMONO"> F  </i>
    <i type="int" name="IDIPOL">     0</i>
    <i name="EPSILON">      1.00000000</i>
    <v name="DIPOL">   -100.00000000   -100.00000000   -100.00000000</v>
    <i name="EFIELD">      0.00000000</i>
   </separator>
  </separator>
  <separator name="grids" >
   <i type="int" name="NGX">    40</i>
   <i type="int" name="NGY">    40</i>
   <i type="int" name="NGZ">    40</i>
   <i type="int" name="NGXF">    80</i>
   <i type="int" name="NGYF">    80</i>
   <i type="int" name="NGZF">    80</i>
   <i type="logical" name="ADDGRID"> F  </i>
  </separator>
  <separator name="ionic" >
   <i type="int" name="NSW">     0</i>
   <i type="int" name="IBRION">    -1</i>
   <i type="int" name="MDALGO">     0</i>
   <i type="int" name="ISIF">     2</i>
   <i name="PSTRESS">      0.00000000</i>
   <i name="EDIFFG">      0.00010000</i>
   <i type="int" name="NFREE">     0</i>
   <i name="POTIM">      0.50000000</i>
   <i name="SMASS">     -3.00000000</i>
   <i name="SCALEE">      1.00000000</i>
  </separator>
  <separator name="ionic md" >
   <i name="TEBEG">      0.00010000</i>
   <i name="TEEND">      0.00010000</i>
   <i type="int" name="NBLOCK">     1</i>
   <i type="int" name="KBLOCK">     1</i>
   <i type="int" name="NPACO">   256</i>
   <i name="APACO">     16.00000000</i>
  </separator>
  <separator name="symmetry" >
   <i type="int" name="ISYM">     0</i>
   <i name="SYMPREC">      0.00001000</i>
  </separator>
  <separator name="dos" >
   <i type="int" name="LORBIT">     0</i>
   <v name="RWIGS">     -1.00000000</v>
   <i type="int" name="NEDOS">   301</i>
   <i name="EMIN">     10.00000000</i>
   <i name="EMAX">    -10.00000000</i>
   <i name="EFERMI">      0.00000000</i>
  </separator>
  <separator name="writing" >
   <i type="int" name="NWRITE">     2</i>
   <i type="logical" name="LWAVE"> F  </i>
   <i type="logical" name="LDOWNSAMPLE"> F  </i>
   <i type="logical" name="LCHARG"> F  </i>
   <i type="logical" name="LPARD"> F  </i>
   <i type="logical" name="LVTOT"> F  </i>
   <i type="logical" name="LVHAR"> F  </i>
   <i type="logical" name="LELF"> F  </i>
   <i type="logical" name="LOPTICS"> F  </i>
   <v name="STM">      0.00000000      0.00000000      0.00000000      0.00000000      0.00000000      0.00000000      0.00000000</v>
  </separator>
  <separator name="performance" >
   <i type="int" name="NPAR">    16</i>
   <i type="int" name="NSIM">     4</i>
   <i type="int" name="NBLK">    -1</i>
   <i type="logical" name="LPLANE"> T  </i>
   <i type="logical" name="LSCALAPACK"> T  </i>
   <i type="logical" name="LSCAAWARE"> F  </i>
   <i type="logical" name="LSCALU"> F  </i>
   <i type="logical" name="LASYNC"> F  </i>
   <i type="logical" name="LORBITALREAL"> F  </i>
  </separator>
  <separator name="miscellaneous" >
   <i type="int" name="IDIOT">     3</i>
   <i type="int" name="ISPECIAL">     0</i>
   <i type="logical" name="LMUSIC"> F  </i>
   <v name="POMASS">     28.08500000</v>
   <v name="DARWINR">      0.00000000</v>
   <v name="DARWINV">      1.00000000</v>
   <i type="logical" name="LCORR"> T  </i>
  </separator>
  <i type="logical" name="GGA_COMPAT"> T  </i>
  <i type="logical" name="LBERRY"> F  </i>
  <i type="int" name="ICORELEVEL">     0</i>
  <i type="logical" name="LDAU"> F  </i>
  <i type="int" name="I_CONSTRAINED_M">     0</i>
  <separator name="electronic exchange-correlation" >
   <i type="string" name="GGA">--</i>
   <i type="int" name="VOSKOWN">     0</i>
   <i type="logical" name="LHFCALC"> F  </i>
   <i type="string" name="PRECFOCK"></i>
   <i type="logical" name="LSYMGRAD"> F  </i>
   <i type="logical" name="LHFONE"> F  </i>
   <i type="logical" name="LRHFCALC"> F  </i>
   <i type="logical" name="LTHOMAS"> F  </i>
   <i type="logical" name="LMODELHF"> F  </i>
   <i name="ENCUT4O">     -1.00000000</i>
   <i type="int" name="EXXOEP">     0</i>
   <i type="int" name="FOURORBIT">     0</i>
   <i name="AEXX">      0.00000000</i>
   <i name="HFALPHA">      0.00000000</i>
   <i name="MCALPHA">      0.00000000</i>
   <i name="ALDAX">      1.00000000</i>
   <i name="AGGAX">      1.00000000</i>
   <i name="ALDAC">      1.00000000</i>
   <i name="AGGAC">      1.00000000</i>
   <i type="int" name="NKREDX">     1</i>
   <i type="int" name="NKREDY">     1</i>
   <i type="int" name="NKREDZ">     1</i>
   <i type="logical" name="SHIFTRED"> F  </i>
   <i type="logical" name="ODDONLY"> F  </i>
   <i type="logical" name="EVENONLY"> F  </i>
   <i type="int" name="LMAXFOCK">     0</i>
   <i type="int" name="NMAXFOCKAE">     0</i>
   <i type="logical" name="LFOCKAEDFT"> F  </i>
   <i name="HFSCREEN">      0.00000000</i>
   <i name="HFSCREENC">      0.00000000</i>
   <i type="int" name="NBANDSGWLOW">     0</i>
  </separator>
  <separator name="vdW DFT" >
   <i type="logical" name="LUSE_VDW"> F  </i>
   <i name="Zab_VDW">     -0.84910000</i>
   <i name="PARAM1">      0.12340000</i>
   <i name="PARAM2">      1.00000000</i>
   <i name="PARAM3">      0.00000000</i>
  </separator>
  <separator name="model GW" >
   <i type="int" name="MODEL_GW">     0</i>
   <i name="MODEL_EPS0">      6.38879919</i>
   <i name="MODEL_ALPHA">      1.00000000</i>
  </separator>
  <separator name="linear response parameters" >
   <i type="logical" name="LEPSILON"> F  </i>
   <i type="logical" name="LRPA"> F  </i>
   <i type="logical" name="LNABLA"> F  </i>
   <i type="logical" name="LVEL"> F  </i>
   <i type="int" name="KINTER">     0</i>
   <i name="CSHIFT">      0.10000000</i>
   <i name="OMEGAMAX">     -1.00000000</i>
   <i name="DEG_THRESHOLD">      0.00200000</i>
   <i name="RTIME">     -0.10000000</i>
   <i name="WPLASMAI">      0.00000000</i>
   <v name="DFIELD">      0.00000000      0.00000000      0.00000000</v>
   <v name="WPLASMA">      0.00000000      0.00000000      0.00000000      0.00000000      0.00000000      0.00000000      0.00000000      0.00000000      0.00000000</v>
  </separator>
  <separator name="orbital magnetization" >
   <i type="logical" name="NUCIND"> F  </i>
   <v name="MAGPOS">      0.00000000      0.00000000      0.00000000</v>
   <i type="logical" name="LNICSALL"> T  </i>
   <i type="logical" name="ORBITALMAG"> F  </i>
   <i type="logical" name="LMAGBLOCH"> F  </i>
   <i type="logical" name="LCHIMAG"> F  </i>
   <i type="logical" name="LGAUGE"> T  </i>
   <i type="int" name="MAGATOM">     0</i>
   <v name="MAGDIPOL">      0.00000000      0.00000000      0.00000000</v>
   <v name="AVECCONST">      0.00000000      0.00000000      0.00000000</v>
  </separator>
  <separator name="response functions" >
   <i type="logical" name="LADDER"> F  </i>
   <i type="logical" name="LRPAFORCE"> F  </i>
   <i type="logical" name="LFXC"> F  </i>
   <i type="logical" name="LHARTREE"> T  </i>
   <i type="int" name="IBSE">     0</i>
   <v type="int" name="KPOINT">    -1     0     0     0</v>
   <i type="logical" name="LTCTE"> F  </i>
   <i type="logical" name="LTETE"> F  </i>
   <i type="logical" name="LTRIPLET"> F  </i>
   <i type="logical" name="LFXCEPS"> F  </i>
   <i type="logical" name="LFXHEG"> F  </i>
   <i type="int" name="NATURALO">     2</i>
   <i type="logical" name="L2ORDER"> F  </i>
   <i type="logical" name="LMP2LT"> F  </i>
   <i type="logical" name="LUSEW"> F  </i>
   <i name="ENCUTGW">     -2.00000000</i>
   <i name="ENCUTGWSOFT">     -2.00000000</i>
   <i name="ENCUTLF">     -1.00000000</i>
   <i type="int" name="LMAXMP2">    -1</i>
   <i name="SCISSOR">      0.00000000</i>
   <i type="int" name="NOMEGA">     0</i>
   <i type="int" name="NOMEGAR">     0</i>
   <i type="int" name="NBANDSGW">    -1</i>
   <i type="int" name="NBANDSO">    -1</i>
   <i type="int" name="NBANDSV">    -1</i>
   <i type="int" name="NELM">    60</i>
   <i type="int" name="NELMHF">     1</i>
   <i type="int" name="DIM">     3</i>
   <i type="int" name="ANTIRES">     0</i>
   <i name="OMEGAMAX">    -30.00000000</i>
   <i name="OMEGAMIN">    -30.00000000</i>
   <i name="OMEGATL">   -200.00000000</i>
   <i type="int" name="OMEGAGRID">   140</i>
   <i name="CSHIFT">     -0.10000000</i>
   <i type="logical" name="SELFENERGY"> F  </i>
   <i type="logical" name="LSPECTRAL"> F  </i>
   <i type="logical" name="LSPECTRALGW"> F  </i>
   <i type="logical" name="LSINGLES"> F  </i>
   <i type="logical" name="LFERMIGW"> F  </i>
   <i type="logical" name="ODDONLYGW"> F  </i>
   <i type="logical" name="EVENONLYGW"> F  </i>
   <i type="int" name="NKREDLFX">     1</i>
   <i type="int" name="NKREDLFY">     1</i>
   <i type="int" name="NKREDLFZ">     1</i>
   <i type="int" name="MAXMEM">  2800</i>
   <i type="int" name="TELESCOPE">     0</i>
   <i type="int" name="TAUPAR">     1</i>
   <i type="int" name="OMEGAPAR">    -1</i>
   <i name="LAMBDA">      1.00000000</i>
  </separator>
  <separator name="External order field" >
   <i name="OFIELD_KAPPA">      0.00000000</i>
   <v name="OFIELD_K">      0.00000000      0.00000000      0.00000000</v>
   <i name="OFIELD_Q6_NEAR">      0.00000000</i>
   <i name="OFIELD_Q6_FAR">      0.00000000</i>
   <i name="OFIELD_A">      0.00000000</i>
  </separator>
 </parameters>
 <atominfo>
  <atoms>     100 </atoms>
  <types>       1 </types>
  <array name="atoms" >
   <dimension dim="1">ion</dimension>
   <field type="string">element</field>
   <field type="int">atomtype</field>
   <set>
    <rc><c>Si</c><c>   1</c></rc>
    <rc><c>Si</c><c>   1</c></rc>
    <rc><c>Si</c><c>   1</c></rc>
    <rc><c>Si</c><c>   1</c></rc>
    <rc><c>Si</c><c>   1</c></rc>
    <rc><c>Si</c><c>   1</c></rc>
    <rc><c>Si</c><c>   1</c></rc>
    <rc><c>Si</c><c>   1</c></rc>
    <rc><c>Si</c><c>   1</c></rc>
    <rc><c>Si</c><c>   1</c></rc>
    <rc><c>Si</c><c>   1</c></rc>
    <rc><c>Si</c><c>   1</c></rc>
    <rc><c>Si</c><c>   1</c></rc>
    <rc><c>Si</c><c>   1</c></rc>
    <rc><c>Si</c><c>   1</c></rc>
    <rc><c>Si</c><c>   1</c></rc>
    <rc><c>Si</c><c>   1</c></rc>
    <rc><c>Si</c><c>   1</c></rc>
    <rc><c>Si</c><c>   1</c></rc>
    <rc><c>Si</c><c>   1</c></rc>
    <rc><c>Si</c><c>   1</c></rc>
    <rc><c>Si</c><c>   1</c></rc>
    <rc><c>Si</c><c>   1</c></rc>
    <rc><c>Si</c><c>   1</c></rc>
    <rc><c>Si</c><c>   1</c></rc>
    <rc><c>Si</c><c>   1</c></rc>
    <rc><c>Si</c><c>   1</c></rc>
    <rc><c>Si</c><c>   1</c></rc>
    <rc><c>Si</c><c>   1</c></rc>
    <rc><c>Si</c><c>   1</c></rc>
    <rc><c>Si</c><c>   1</c></rc>
    <rc><c>Si</c><c>   1</c></rc>
    <rc><c>Si</c><c>   1</c></rc>
    <rc><c>Si</c><c>   1</c></rc>
    <rc><c>Si</c><c>   1</c></rc>
    <rc><c>Si</c><c>   1</c></rc>
    <rc><c>Si</c><c>   1</c></rc>
    <rc><c>Si</c><c>   1</c></rc>
    <rc><c>Si</c><c>   1</c></rc>
    <rc><c>Si</c><c>   1</c></rc>
    <rc><c>Si</c><c>   1</c></rc>
    <rc><c>Si</c><c>   1</c></rc>
    <rc><c>Si</c><c>   1</c></rc>
    <rc><c>Si</c><c>   1</c></rc>
    <rc><c>Si</c><c>   1</c></rc>
    <rc><c>Si</c><c>   1</c></rc>
    <rc><c>Si</c><c>   1</c></rc>
    <rc><c>Si</c><c>   1</c></rc>
    <rc><c>Si</c><c>   1</c></rc>
    <rc><c>Si</c><c>   1</c></rc>
    <rc><c>Si</c><c>   1</c></rc>
    <rc><c>Si</c><c>   1</c></rc>
    <rc><c>Si</c><c>   1</c></rc>
    <rc><c>Si</c><c>   1</c></rc>
    <rc><c>Si</c><c>   1</c></rc>
    <rc><c>Si</c><c>   1</c></rc>
    <rc><c>Si</c><c>   1</c></rc>
    <rc><c>Si</c><c>   1</c></rc>
    <rc><c>Si</c><c>   1</c></rc>
    <rc><c>Si</c><c>   1</c></rc>
    <rc><c>Si</c><c>   1</c></rc>
    <rc><c>Si</c><c>   1</c></rc>
    <rc><c>Si</c><c>   1</c></rc>
    <rc><c>Si</c><c>   1</c></rc>
    <rc><c>Si</c><c>   1</c></rc>
    <rc><c>Si</c><c>   1</c></rc>
    <rc><c>Si</c><c>   1</c></rc>
    <rc><c>Si</c><c>   1</c></rc>
    <rc><c>Si</c><c>   1</c></rc>
    <rc><c>Si</c><c>   1</c></rc>
    <rc><c>Si</c><c>   1</c></rc>
    <rc><c>Si</c><c>   1</c></rc>
    <rc><c>Si</c><c>   1</c></rc>
    <rc><c>Si</c><c>   1</c></rc>
    <rc><c>Si</c><c>   1</c></rc>
    <rc><c>Si</c><c>   1</c></rc>
    <rc><c>Si</c><c>   1</c></rc>
    <rc><c>Si</c><c>   1</c></rc>
    <rc><c>Si</c><c>   1</c></rc>
    <rc><c>Si</c><c>   1</c></rc>
    <rc><c>Si</c><c>   1</c></rc>
    <rc><c>Si</c><c>   1</c></rc>
    <rc><c>Si</c><c>   1</c></rc>
    <rc><c>Si</c><c>   1</c></rc>
    <rc><c>Si</c><c>   1</c></rc>
    <rc><c>Si</c><c>   1</c></rc>
    <rc><c>Si</c><c>   1</c></rc>
    <rc><c>Si</c><c>   1</c></rc>
    <rc><c>Si</c><c>   1</c></rc>
    <rc><c>Si</c><c>   1</c></rc>
    <rc><c>Si</c><c>   1</c></rc>
    <rc><c>Si</c><c>   1</c></rc>
    <rc><c>Si</c><c>   1</c></rc>
    <rc><c>Si</c><c>   1</c></rc>
    <rc><c>Si</c><c>   1</c></rc>
    <rc><c>Si</c><c>   1</c></rc>
    <rc><c>Si</c><c>   1</c></rc>
    <rc><c>Si</c><c>   1</c></rc>
    <rc><c>Si</c><c>   1</c></rc>
    <rc><c>Si</c><c>   1</c></rc>
   </set>
  </array>
  <array name="atomtypes" >
   <dimension dim="1">type</dimension>
   <field type="int">atomspertype</field>
   <field type="string">element</field>
   <field>mass</field>
   <field>valence</field>
   <field type="string">pseudopotential</field>
   <set>
    <rc><c> 100</c><c>Si</c><c>     28.08500000</c><c>      4.00000000</c><c>  PAW_PBE Si 05Jan2001                  </c></rc>
   </set>
  </array>
 </atominfo>
 <structure name="initialpos" >
  <crystal>
   <varray name="basis" >
    <v>      10.21149500       0.00000000       0.00000000 </v>
    <v>       0.00000000      10.21149500       0.00000000 </v>
    <v>       0.00000000       0.00000000      10.21149500 </v>
   </varray>
   <i name="volume">   1064.79986425 </i>
   <varray name="rec_basis" >
    <v>       0.09792885       0.00000000       0.00000000 </v>
    <v>       0.00000000       0.09792885       0.00000000 </v>
    <v>       0.00000000       0.00000000       0.09792885 </v>
   </varray>
  </crystal>
  <varray name="positions" >
   <v>       0.82329218       0.76851734       0.09241282 </v>
   <v>       0.81654136       0.89999878       0.90624585 </v>
   <v>       0.69400710       0.14016537       0.42063332 </v>
   <v>       0.78825755       0.22019881       0.85620764 </v>
   <v>       0.30635162       0.99086412       0.40469755 </v>
   <v>       0.61183999       0.79946932       0.84726840 </v>
   <v>       0.49607506       0.57822689       0.43911827 </v>
   <v>       0.50171606       0.54611191       0.21590355 </v>
   <v>       0.55086763       0.96376623       0.27884565 </v>
   <v>       0.01200950       0.00179592       0.87842769 </v>
   <v>       0.18644136       0.19045664       0.44239967 </v>
   <v>       0.81164041       0.41810665       0.41537483 </v>
   <v>       0.97575879       0.22001499       0.77527953 </v>
   <v>       0.77080457       0.31849000       0.63231770 </v>
   <v>       0.89129378       0.18342603       0.52227436 </v>
   <v>       0.08147720       0.99428056       0.42772356 </v>
   <v>       0.05048350       0.08087670       0.62761682 </v>
   <v>       0.18143171       0.26546534       0.98166331 </v>
   <v>       0.43877934       0.19728874       0.36351181 </v>
   <v>       0.60499251       0.73184103       0.29987509 </v>
   <v>       0.57188110       0.68935411       0.04665193 </v>
   <v>       0.99917554       0.38868648       0.61645273 </v>
   <v>       0.61671724       0.24924822       0.99799246 </v>
   <v>       0.32099492       0.65482478       0.31408741 </v>
   <v>       0.89548935       0.07792473       0.31832058 </v>
   <v>       0.02100094       0.37545061       0.12807439 </v>
   <v>       0.17900258       0.04587213       0.02600853 </v>
   <v>       0.04153574       0.35408929       0.38354188 </v>
   <v>       0.29197498       0.43850837       0.07391288 </v>
   <v>       0.63495267       0.07262443       0.84996271 </v>
   <v>       0.67105816       0.89798438       0.45635708 </v>
   <v>       0.18271673       0.13156428       0.81281419 </v>
   <v>       0.22692789       0.81973511       0.04893201 </v>
   <v>       0.09421118       0.58384350       0.43038820 </v>
   <v>       0.23588750       0.29867537       0.24603440 </v>
   <v>       0.01755463       0.79975665       0.97886803 </v>
   <v>       0.41042394       0.81551634       0.19328649 </v>
   <v>       0.73601965       0.58390040       0.21933057 </v>
   <v>       0.09750482       0.13142571       0.23467651 </v>
   <v>       0.48710517       0.05326125       0.06524951 </v>
   <v>       0.77849512       0.65150029       0.90905622 </v>
   <v>       0.41840504       0.49655863       0.64521728 </v>
   <v>       0.97261165       0.95366614       0.14310245 </v>
   <v>       0.89235954       0.58513058       0.57154227 </v>
   <v>       0.45512239       0.28426288       0.57006942 </v>
   <v>       0.20658973       0.48241663       0.60048524 </v>
   <v>       0.86316724       0.26009737       0.22240945 </v>
   <v>       0.63623397       0.14573018       0.62888186 </v>
   <v>       0.41816786       0.07346603       0.81655223 </v>
   <v>       0.79274974       0.07462149       0.06258388 </v>
   <v>       0.36415726       0.29685634       0.78328090 </v>
   <v>       0.14776122       0.50345155       0.24035795 </v>
   <v>       0.24913580       0.92795903       0.82901260 </v>
   <v>       0.96790950       0.61440690       0.81502601 </v>
   <v>       0.47485780       0.32417007       0.17850090 </v>
   <v>       0.02444157       0.83853011       0.73817889 </v>
   <v>       0.09467066       0.65041857       0.63788828 </v>
   <v>       0.74734816       0.70233644       0.47858604 </v>
   <v>       0.11521741       0.60986330       0.01501768 </v>
   <v>       0.62198689       0.93755371       0.67160254 </v>
   <v>       0.61840230       0.89695172       0.05645383 </v>
   <v>       0.31958866       0.09375199       0.61978917 </v>
   <v>       0.65312846       0.50077907       0.58153835 </v>
   <v>       0.11016036       0.72804364       0.23063342 </v>
   <v>       0.45355768       0.46204919       0.92173634 </v>
   <v>       0.18792606       0.92760306       0.23312473 </v>
   <v>       0.93260438       0.57655476       0.28604440 </v>
   <v>       0.17562002       0.27064823       0.65033729 </v>
   <v>       0.80920551       0.44914785       0.79980551 </v>
   <v>       0.79972511       0.76974351       0.72273090 </v>
   <v>       0.58219624       0.30693782       0.77952993 </v>
   <v>       0.24366109       0.47067222       0.82728445 </v>
   <v>       0.19570719       0.70447618       0.81716517 </v>
   <v>       0.58084570       0.71593190       0.61800794 </v>
   <v>       0.64259964       0.48621079       0.02314509 </v>
   <v>       0.43334899       0.80257337       0.43361192 </v>
   <v>       0.41860139       0.84447145       0.94521850 </v>
   <v>       0.31278309       0.44358324       0.41998924 </v>
   <v>       0.90703359       0.55208018       0.06087972 </v>
   <v>       0.61976713       0.55807636       0.79017832 </v>
   <v>       0.59503746       0.36141975       0.42019900 </v>
   <v>       0.19533124       0.79227273       0.43092554 </v>
   <v>       0.82681077       0.01899379       0.71672502 </v>
   <v>       0.31915180       0.70473471       0.60067835 </v>
   <v>       0.38765773       0.22945631       0.99088615 </v>
   <v>       0.63740040       0.16115535       0.20108016 </v>
   <v>       0.34433136       0.64162064       0.04207239 </v>
   <v>       0.87002217       0.96382939       0.50134471 </v>
   <v>       0.40684356       0.64909927       0.81247251 </v>
   <v>       0.76607079       0.92173428       0.23822173 </v>
   <v>       0.50066685       0.02229918       0.49358414 </v>
   <v>       0.68396675       0.37925681       0.22367303 </v>
   <v>       0.42461334       0.86347621       0.69902928 </v>
   <v>       0.82258337       0.35869459       0.01117055 </v>
   <v>       0.91366377       0.78783587       0.31107110 </v>
   <v>       0.98222415       0.17705321       0.03233337 </v>
   <v>       0.03935672       0.41036998       0.90705524 </v>
   <v>       0.99218009       0.79755158       0.51877448 </v>
   <v>       0.19636743       0.91203453       0.61286109 </v>
   <v>       0.33167279       0.10222235       0.19254566 </v>
  </varray>
 </structure>
 <calculation>
  <scstep>
   <time name="diag">    0.34    0.34</time>
   <time name="diis">    0.43    0.44</time>
   <time name="orth">    0.10    0.10</time>
   <time name="total">    0.96    1.09</time>
   <energy>
    <i name="alphaZ">    316.14514549 </i>
    <i name="ewald"> -14914.21071787 </i>
    <i name="hartreedc">    -94.66806024 </i>
    <i name="XCdc">   -777.34764819 </i>
    <i name="pawpsdc">   8803.41707833 </i>
    <i name="pawaedc">  -7043.47671478 </i>
    <i name="eentropy">     -0.03491922 </i>
    <i name="bandstr">   4797.33937711 </i>
    <i name="atom">  10306.12861560 </i>
    <i name="e_fr_energy">   1393.29215623 </i>
    <i name="e_wo_entrp">   1393.32707545 </i>
    <i name="e_0_energy">   1393.30961584 </i>
   </energy>
  </scstep>
  <scstep>
   <time name="diag">    0.34    0.34</time>
   <time name="diis">    0.43    0.44</time>
   <time name="orth">    0.10    0.10</time>
   <time name="total">    0.87    0.88</time>
   <energy>
    <i name="e_fr_energy">     13.43346869 </i>
    <i name="e_wo_entrp">     13.46864586 </i>
    <i name="e_0_energy">     13.45105727 </i>
   </energy>
  </scstep>
  <scstep>
   <time name="diag">    0.34    0.34</time>
   <time name="diis">    0.44    0.45</time>
   <time name="orth">    0.10    0.10</time>
   <time name="total">    0.88    0.88</time>
   <energy>
    <i name="e_fr_energy">   -275.15011958 </i>
    <i name="e_wo_entrp">   -275.10212146 </i>
    <i name="e_0_energy">   -275.12612052 </i>
   </energy>
  </scstep>
  <scstep>
   <time name="diag">    0.34    0.34</time>
   <time name="diis">    0.44    0.44</time>
   <time name="orth">    0.10    0.10</time>
   <time name="total">    0.87    0.88</time>
   <energy>
    <i name="e_fr_energy">   -355.14447153 </i>
    <i name="e_wo_entrp">   -355.09540647 </i>
    <i name="e_0_energy">   -355.11993900 </i>
   </energy>
  </scstep>
  <scstep>
   <time name="diag">    0.34    0.34</time>
   <time name="diis">    0.44    0.44</time>
   <time name="orth">    0.10    0.10</time>
   <time name="total">    0.87    0.88</time>
   <energy>
    <i name="e_fr_energy">   -381.38451192 </i>
    <i name="e_wo_entrp">   -381.32440540 </i>
    <i name="e_0_energy">   -381.35445866 </i>
   </energy>
  </scstep>
  <scstep>
   <time name="diag">    0.34    0.34</time>
   <time name="diis">    0.44    0.45</time>
   <time name="orth">    0.10    0.10</time>
   <time name="total">    0.87    0.88</time>
   <energy>
    <i name="e_fr_energy">   -391.16170428 </i>
    <i name="e_wo_entrp">   -391.10173504 </i>
    <i name="e_0_energy">   -391.13171966 </i>
   </energy>
  </scstep>
  <scstep>
   <time name="diag">    0.34    0.34</time>
   <time name="diis">    0.44    0.44</time>
   <time name="orth">    0.10    0.10</time>
   <time name="total">    0.87    0.88</time>
   <energy>
    <i name="e_fr_energy">   -394.66433847 </i>
    <i name="e_wo_entrp">   -394.60219650 </i>
    <i name="e_0_energy">   -394.63326748 </i>
   </energy>
  </scstep>
  <scstep>
   <time name="diag">    0.34    0.34</time>
   <time name="diis">    0.44    0.44</time>
   <time name="orth">    0.10    0.10</time>
   <time name="total">    0.87    0.88</time>
   <energy>
    <i name="e_fr_energy">   -396.07359681 </i>
    <i name="e_wo_entrp">   -396.00743814 </i>
    <i name="e_0_energy">   -396.04051748 </i>
   </energy>
  </scstep>
  <scstep>
   <time name="diag">    0.34    0.34</time>
   <time name="diis">    0.97    0.98</time>
   <time name="orth">    0.10    0.10</time>
   <time name="total">    1.40    1.42</time>
   <energy>
    <i name="e_fr_energy">   -396.89856138 </i>
    <i name="e_wo_entrp">   -396.83606917 </i>
    <i name="e_0_energy">   -396.86731527 </i>
   </energy>
  </scstep>
  <scstep>
   <time name="diag">    0.34    0.34</time>
   <time name="diis">    0.93    0.94</time>
   <time name="orth">    0.10    0.10</time>
   <time name="total">    1.36    1.38</time>
   <energy>
    <i name="e_fr_energy">   -397.00088917 </i>
    <i name="e_wo_entrp">   -396.94005771 </i>
    <i name="e_0_energy">   -396.97047344 </i>
   </energy>
  </scstep>
  <scstep>
   <time name="diag">    0.34    0.34</time>
   <time name="diis">    0.90    0.91</time>
   <time name="orth">    0.10    0.10</time>
   <time name="total">    1.34    1.35</time>
   <energy>
    <i name="e_fr_energy">   -397.00280284 </i>
    <i name="e_wo_entrp">   -396.94196782 </i>
    <i name="e_0_energy">   -396.97238533 </i>
   </energy>
  </scstep>
  <scstep>
   <time name="diag">    0.34    0.34</time>
   <time name="diis">    0.76    0.77</time>
   <time name="orth">    0.10    0.10</time>
   <time name="total">    1.24    1.26</time>
   <energy>
    <i name="e_fr_energy">   -397.00281429 </i>
    <i name="e_wo_entrp">   -396.94197933 </i>
    <i name="e_0_energy">   -396.97239681 </i>
   </energy>
  </scstep>
  <scstep>
   <time name="diag">    0.34    0.34</time>
   <time name="diis">    0.88    0.89</time>
   <time name="orth">    0.10    0.10</time>
   <time name="total">    1.45    1.47</time>
   <energy>
    <i name="e_fr_energy">   -403.28321206 </i>
    <i name="e_wo_entrp">   -403.23202183 </i>
    <i name="e_0_energy">   -403.25761695 </i>
   </energy>
  </scstep>
  <scstep>
   <time name="diag">    0.34    0.34</time>
   <time name="diis">    0.91    0.92</time>
   <time name="orth">    0.10    0.10</time>
   <time name="total">    1.48    1.49</time>
   <energy>
    <i name="e_fr_energy">   -411.34058525 </i>
    <i name="e_wo_entrp">   -411.28885255 </i>
    <i name="e_0_energy">   -411.31471890 </i>
   </energy>
  </scstep>
  <scstep>
   <time name="diag">    0.34    0.34</time>
   <time name="diis">    0.92    0.93</time>
   <time name="orth">    0.10    0.10</time>
   <time name="total">    1.49    1.50</time>
   <energy>
    <i name="e_fr_energy">   -411.97844833 </i>
    <i name="e_wo_entrp">   -411.93693592 </i>
    <i name="e_0_energy">   -411.95769212 </i>
   </energy>
  </scstep>
  <scstep>
   <time name="diag">    0.34    0.34</time>
   <time name="diis">    0.91    0.92</time>
   <time name="orth">    0.10    0.10</time>
   <time name="total">    1.48    1.49</time>
   <energy>
    <i name="e_fr_energy">   -412.10675765 </i>
    <i name="e_wo_entrp">   -412.06533240 </i>
    <i name="e_0_energy">   -412.08604502 </i>
   </energy>
  </scstep>
  <scstep>
   <time name="diag">    0.34    0.34</time>
   <time name="diis">    0.93    0.94</time>
   <time name="orth">    0.10    0.10</time>
   <time name="total">    1.50    1.52</time>
   <energy>
    <i name="e_fr_energy">   -412.18078759 </i>
    <i name="e_wo_entrp">   -412.14070949 </i>
    <i name="e_0_energy">   -412.16074854 </i>
   </energy>
  </scstep>
  <scstep>
   <time name="diag">    0.34    0.34</time>
   <time name="diis">    0.93    0.94</time>
   <time name="orth">    0.10    0.10</time>
   <time name="total">    1.50    1.58</time>
   <energy>
    <i name="e_fr_energy">   -412.20378665 </i>
    <i name="e_wo_entrp">   -412.15466824 </i>
    <i name="e_0_energy">   -412.17922745 </i>
   </energy>
  </scstep>
  <scstep>
   <time name="diag">    0.34    0.34</time>
   <time name="diis">    0.93    0.94</time>
   <time name="orth">    0.10    0.10</time>
   <time name="total">    1.50    1.51</time>
   <energy>
    <i name="e_fr_energy">   -412.20856724 </i>
    <i name="e_wo_entrp">   -412.15156891 </i>
    <i name="e_0_energy">   -412.18006808 </i>
   </energy>
  </scstep>
  <scstep>
   <time name="diag">    0.34    0.34</time>
   <time name="diis">    0.94    0.95</time>
   <time name="orth">    0.10    0.10</time>
   <time name="total">    1.51    1.52</time>
   <energy>
    <i name="e_fr_energy">   -412.21005480 </i>
    <i name="e_wo_entrp">   -412.14809334 </i>
    <i name="e_0_energy">   -412.17907407 </i>
   </energy>
  </scstep>
  <scstep>
   <time name="diag">    0.34    0.34</time>
   <time name="diis">    0.92    0.93</time>
   <time name="orth">    0.10    0.10</time>
   <time name="total">    1.49    1.50</time>
   <energy>
    <i name="e_fr_energy">   -412.21088291 </i>
    <i name="e_wo_entrp">   -412.14571121 </i>
    <i name="e_0_energy">   -412.17829706 </i>
   </energy>
  </scstep>
  <scstep>
   <time name="diag">    0.34    0.34</time>
   <time name="diis">    0.91    0.92</time>
   <time name="orth">    0.10    0.10</time>
   <time name="total">    1.48    1.50</time>
   <energy>
    <i name="e_fr_energy">   -412.21140370 </i>
    <i name="e_wo_entrp">   -412.14386754 </i>
    <i name="e_0_energy">   -412.17763562 </i>
   </energy>
  </scstep>
  <scstep>
   <time name="diag">    0.33    0.34</time>
   <time name="diis">    0.91    0.92</time>
   <time name="orth">    0.10    0.10</time>
   <time name="total">    1.48    1.49</time>
   <energy>
    <i name="e_fr_energy">   -412.21177830 </i>
    <i name="e_wo_entrp">   -412.14233059 </i>
    <i name="e_0_energy">   -412.17705444 </i>
   </energy>
  </scstep>
  <scstep>
   <time name="diag">    0.33    0.34</time>
   <time name="diis">    0.90    0.91</time>
   <time name="orth">    0.10    0.10</time>
   <time name="total">    1.47    1.48</time>
   <energy>
    <i name="e_fr_energy">   -412.21198330 </i>
    <i name="e_wo_entrp">   -412.14134897 </i>
    <i name="e_0_energy">   -412.17666614 </i>
   </energy>
  </scstep>
  <scstep>
   <time name="diag">    0.33    0.34</time>
   <time name="diis">    0.94    0.95</time>
   <time name="orth">    0.10    0.24</time>
   <time name="total">    1.50    1.66</time>
   <energy>
    <i name="e_fr_energy">   -412.21205712 </i>
    <i name="e_wo_entrp">   -412.14096249 </i>
    <i name="e_0_energy">   -412.17650980 </i>
   </energy>
  </scstep>
  <scstep>
   <time name="diag">    0.34    0.34</time>
   <time name="diis">    0.94    0.96</time>
   <time name="orth">    0.10    0.10</time>
   <time name="total">    1.51    1.53</time>
   <energy>
    <i name="e_fr_energy">   -412.21207519 </i>
    <i name="e_wo_entrp">   -412.14087306 </i>
    <i name="e_0_energy">   -412.17647413 </i>
   </energy>
  </scstep>
  <scstep>
   <time name="diag">    0.34    0.34</time>
   <time name="diis">    0.74    0.75</time>
   <time name="orth">    0.10    0.10</time>
   <time name="total">    1.26    1.27</time>
   <energy>
    <i name="alphaZ">    316.14514549 </i>
    <i name="ewald"> -14914.21071787 </i>
    <i name="hartreedc">   -133.22754158 </i>
    <i name="XCdc">   -768.45745811 </i>
    <i name="pawpsdc">  88638.68136147 </i>
    <i name="pawaedc"> -86894.87154190 </i>
    <i name="eentropy">     -0.07123149 </i>
    <i name="bandstr">   3037.67128863 </i>
    <i name="atom">  10306.12861560 </i>
    <i name="e_fr_energy">   -412.21207977 </i>
    <i name="e_wo_entrp">   -412.14084828 </i>
    <i name="e_0_energy">   -412.17646402 </i>
   </energy>
  </scstep>
  <structure>
   <crystal>
    <varray name="basis" >
     <v>      10.21149500       0.00000000       0.00000000 </v>
     <v>       0.00000000      10.21149500       0.00000000 </v>
     <v>       0.00000000       0.00000000      10.21149500 </v>
    </varray>
    <i name="volume">   1064.79986425 </i>
    <varray name="rec_basis" >
     <v>       0.09792885       0.00000000       0.00000000 </v>
     <v>       0.00000000       0.09792885       0.00000000 </v>
     <v>       0.00000000       0.00000000       0.09792885 </v>
    </varray>
   </crystal>
   <varray name="positions" >
    <v>       0.82329218       0.76851734       0.09241282 </v>
    <v>       0.81654136       0.89999878       0.90624585 </v>
    <v>       0.69400710       0.14016537       0.42063332 </v>
    <v>       0.78825755       0.22019881       0.85620764 </v>
    <v>       0.30635162       0.99086412       0.40469755 </v>
    <v>       0.61183999       0.79946932       0.84726840 </v>
    <v>       0.49607506       0.57822689       0.43911827 </v>
    <v>       0.50171606       0.54611191       0.21590355 </v>
    <v>       0.55086763       0.96376623       0.27884565 </v>
    <v>       0.01200950       0.00179592       0.87842769 </v>
    <v>       0.18644136       0.19045664       0.44239967 </v>
    <v>       0.81164041       0.41810665       0.41537483 </v>
    <v>       0.97575879       0.22001499       0.77527953 </v>
    <v>       0.77080457       0.31849000       0.63231770 </v>
    <v>       0.89129378       0.18342603       0.52227436 </v>
    <v>       0.08147720       0.99428056       0.42772356 </v>
    <v>       0.05048350       0.08087670       0.62761682 </v>
    <v>       0.18143171       0.26546534       0.98166331 </v>
    <v>       0.43877934       0.19728874       0.36351181 </v>
    <v>       0.60499251       0.73184103       0.29987509 </v>
    <v>       0.57188110       0.68935411       0.04665193 </v>
    <v>       0.99917554       0.38868648       0.61645273 </v>
    <v>       0.61671724       0.24924822       0.99799246 </v>
    <v>       0.32099492       0.65482478       0.31408741 </v>
    <v>       0.89548935       0.07792473       0.31832058 </v>
    <v>       0.02100094       0.37545061       0.12807439 </v>
    <v>       0.17900258       0.04587213       0.02600853 </v>
    <v>       0.04153574       0.35408929       0.38354188 </v>
    <v>       0.29197498       0.43850837       0.07391288 </v>
    <v>       0.63495267       0.07262443       0.84996271 </v>
    <v>       0.67105816       0.89798438       0.45635708 </v>
    <v>       0.18271673       0.13156428       0.81281419 </v>
    <v>       0.22692789       0.81973511       0.04893201 </v>
    <v>       0.09421118       0.58384350       0.43038820 </v>
    <v>       0.23588750       0.29867537       0.24603440 </v>
    <v>       0.01755463       0.79975665       0.97886803 </v>
    <v>       0.41042394       0.81551634       0.19328649 </v>
    <v>       0.73601965       0.58390040       0.21933057 </v>
    <v>       0.09750482       0.13142571       0.23467651 </v>
    <v>       0.48710517       0.05326125       0.06524951 </v>
    <v>       0.77849512       0.65150029       0.90905622 </v>
    <v>       0.41840504       0.49655863       0.64521728 </v>
    <v>       0.97261165       0.95366614       0.14310245 </v>
    <v>       0.89235954       0.58513058       0.57154227 </v>
    <v>       0.45512239       0.28426288       0.57006942 </v>
    <v>       0.20658973       0.48241663       0.60048524 </v>
    <v>       0.86316724       0.26009737       0.22240945 </v>
    <v>       0.63623397       0.14573018       0.62888186 </v>
    <v>       0.41816786       0.07346603       0.81655223 </v>
    <v>       0.79274974       0.07462149       0.06258388 </v>
    <v>       0.36415726       0.29685634       0.78328090 </v>
    <v>       0.14776122       0.50345155       0.24035795 </v>
    <v>       0.24913580       0.92795903       0.82901260 </v>
    <v>       0.96790950       0.61440690       0.81502601 </v>
    <v>       0.47485780       0.32417007       0.17850090 </v>
    <v>       0.02444157       0.83853011       0.73817889 </v>
    <v>       0.09467066       0.65041857       0.63788828 </v>
    <v>       0.74734816       0.70233644       0.47858604 </v>
    <v>       0.11521741       0.60986330       0.01501768 </v>
    <v>       0.62198689       0.93755371       0.67160254 </v>
    <v>       0.61840230       0.89695172       0.05645383 </v>
    <v>       0.31958866       0.09375199       0.61978917 </v>
    <v>       0.65312846       0.50077907       0.58153835 </v>
    <v>       0.11016036       0.72804364       0.23063342 </v>
    <v>       0.45355768       0.46204919       0.92173634 </v>
    <v>       0.18792606       0.92760306       0.23312473 </v>
    <v>       0.93260438       0.57655476       0.28604440 </v>
    <v>       0.17562002       0.27064823       0.65033729 </v>
    <v>       0.80920551       0.44914785       0.79980551 </v>
    <v>       0.79972511       0.76974351       0.72273090 </v>
    <v>       0.58219624       0.30693782       0.77952993 </v>
    <v>       0.24366109       0.47067222       0.82728445 </v>
    <v>       0.19570719       0.70447618       0.81716517 </v>
    <v>       0.58084570       0.71593190       0.61800794 </v>
    <v>       0.64259964       0.48621079       0.02314509 </v>
    <v>       0.43334899       0.80257337       0.43361192 </v>
    <v>       0.41860139       0.84447145       0.94521850 </v>
    <v>       0.31278309       0.44358324       0.41998924 </v>
    <v>       0.90703359       0.55208018       0.06087972 </v>
    <v>       0.61976713       0.55807636       0.79017832 </v>
    <v>       0.59503746       0.36141975       0.42019900 </v>
    <v>       0.19533124       0.79227273       0.43092554 </v>
    <v>       0.82681077       0.01899379       0.71672502 </v>
    <v>       0.31915180       0.70473471       0.60067835 </v>
    <v>       0.38765773       0.22945631       0.99088615 </v>
    <v>       0.63740040       0.16115535       0.20108016 </v>
    <v>       0.34433136       0.64162064       0.04207239 </v>
    <v>       0.87002217       0.96382939       0.50134471 </v>
    <v>       0.40684356       0.64909927       0.81247251 </v>
    <v>       0.76607079       0.92173428       0.23822173 </v>
    <v>       0.50066685       0.02229918       0.49358414 </v>
    <v>       0.68396675       0.37925681       0.22367303 </v>
    <v>       0.42461334       0.86347621       0.69902928 </v>
    <v>       0.82258337       0.35869459       0.01117055 </v>
    <v>       0.91366377       0.78783587       0.31107110 </v>
    <v>       0.98222415       0.17705321       0.03233337 </v>
    <v>       0.03935672       0.41036998       0.90705524 </v>
    <v>       0.99218009       0.79755158       0.51877448 </v>
    <v>       0.19636743       0.91203453       0.61286109 </v>
    <v>       0.33167279       0.10222235       0.19254566 </v>
   </varray>
  </structure>
  <varray name="forces" >
   <v>      -0.03349275      -0.38449556       0.03545374 </v>
   <v>      -0.68858191       0.35064476       0.41722199 </v>
   <v>      -0.35407208       0.46131030      -1.40441665 </v>
   <v>      -0.75791194      -0.98970275      -0.29030097 </v>
   <v>       0.72338901       0.79296054      -0.04158064 </v>
   <v>      -0.51113396      -0.45877131      -0.46156170 </v>
   <v>       0.45317058      -0.22300604       0.30463355 </v>
   <v>      -1.02088415      -0.97635094      -0.41650292 </v>
   <v>      -1.08353502       0.68313062      -0.87588411 </v>
   <v>      -0.84972213       1.22508024      -0.03211300 </v>
   <v>       1.07304992       0.39732103       0.37353147 </v>
   <v>       1.36374345       0.03071497      -0.14032089 </v>
   <v>       1.72165150       1.25762977       0.14092766 </v>
   <v>       0.11462433       0.51339782       0.28060539 </v>
   <v>       1.13459838       1.23803528      -0.94669413 </v>
   <v>      -0.82206297       0.21301758      -1.38690276 </v>
   <v>       0.36618335      -1.54110776       0.29593194 </v>
   <v>      -0.44626291       1.02119877       0.91564500 </v>
   <v>      -0.53991381       0.42925275      -0.10098403 </v>
   <v>       0.55046191       1.02949425      -0.02744512 </v>
   <v>      -0.40679273      -0.52774830       0.51154190 </v>
   <v>      -1.86462007       1.00399237      -0.18688150 </v>
   <v>      -0.28802303       0.29453391       0.13008943 </v>
   <v>      -0.81453610      -2.13663062      -1.20336347 </v>
   <v>       0.22538633      -0.20665206       0.24393375 </v>
   <v>       0.80775261      -0.55127340       0.90430137 </v>
   <v>       0.82595924      -0.56303803       0.41169349 </v>
   <v>      -1.51279914      -0.69664891       0.29417012 </v>
   <v>      -0.64214959      -0.61672243       0.66337623 </v>
   <v>      -0.25467753      -1.50194408       1.64327396 </v>
   <v>      -0.23498656      -0.08993614      -0.36146922 </v>
   <v>       1.02226949      -0.09115287       0.07050539 </v>
   <v>      -0.91174636       0.89953671      -0.48877412 </v>
   <v>       0.21125380       0.08909284       0.74357755 </v>
   <v>       1.02690081       1.17060066      -0.12748602 </v>
   <v>      -1.51555898       0.37573609      -0.21163735 </v>
   <v>       0.04515589       1.20257453      -1.09470137 </v>
   <v>      -0.27971577       0.91027647      -0.07630522 </v>
   <v>      -1.31497855       0.94958742      -0.32944159 </v>
   <v>      -0.48732699      -0.10895548      -1.89599433 </v>
   <v>      -1.29629711       0.22497463       1.00081573 </v>
   <v>       1.24881289       0.15303062      -0.19420033 </v>
   <v>       0.76354640      -0.91744244      -1.20612392 </v>
   <v>      -0.04190184      -1.89013482       0.96058525 </v>
   <v>      -1.14313443      -0.55663311       1.04997241 </v>
   <v>       0.01070554      -1.22516919       0.20673465 </v>
   <v>      -0.09284578       1.07823609       0.35026649 </v>
   <v>      -0.69258344       1.18862041       0.66111709 </v>
   <v>       0.26687827       0.02328236       1.32645704 </v>
   <v>      -0.84620414       0.01775986      -0.80802625 </v>
   <v>      -0.73011083      -0.85581186      -1.22489530 </v>
   <v>       2.11396448       1.19633019      -1.08202952 </v>
   <v>      -1.30184742      -1.00351132       1.31999610 </v>
   <v>       0.53415447      -0.83520889      -0.07365441 </v>
   <v>      -1.48493557       0.27518454       0.73754731 </v>
   <v>      -1.30029417       0.91980714       0.08127945 </v>
   <v>       0.03042953       0.31618825       0.46836324 </v>
   <v>       0.61138048      -1.01531852      -1.82160263 </v>
   <v>       1.25959699      -1.42814260       0.50499820 </v>
   <v>       0.73755141      -0.95842590      -0.19969433 </v>
   <v>       2.88263807       0.00372072       0.67799628 </v>
   <v>       0.96703769       0.63296875      -0.89258372 </v>
   <v>       0.85935186       0.51770724       0.32093489 </v>
   <v>      -0.41254799      -1.11663116      -1.16020496 </v>
   <v>       0.12626832      -1.10587201       0.10674346 </v>
   <v>       0.73710692       0.26392672      -0.10740254 </v>
   <v>       0.77608358      -1.80433661       0.61051078 </v>
   <v>       1.03309372       0.70064150      -0.57127470 </v>
   <v>       1.37978375       0.12043724       0.02423912 </v>
   <v>       0.84671005      -0.01946327      -2.56146271 </v>
   <v>       0.62269852       1.07040180      -0.42150866 </v>
   <v>      -1.37476887       1.20934166       0.41877529 </v>
   <v>       0.51873185      -0.29257942       1.65462539 </v>
   <v>      -0.73163145      -0.14354443       0.50703136 </v>
   <v>       0.89120006      -0.87338700      -0.28588155 </v>
   <v>       0.72211956       0.82629169       0.98143944 </v>
   <v>       0.45206932       0.98053863      -0.28333543 </v>
   <v>       0.83257902      -1.04154271      -1.12748128 </v>
   <v>      -0.33814701       1.38291872       0.64957694 </v>
   <v>      -1.28605792       0.69581825       0.10515505 </v>
   <v>      -0.82041020      -0.32327877      -0.81645901 </v>
   <v>       0.00469141      -0.49599149      -0.57747300 </v>
   <v>       1.46584976       0.77581282       0.28332757 </v>
   <v>      -0.60284324      -1.37661300      -0.04452769 </v>
   <v>       0.89695062       0.00029530       0.48450429 </v>
   <v>       0.55435190      -1.00462364       1.22354646 </v>
   <v>       1.44285793      -0.09673960       0.47441421 </v>
   <v>      -1.57132661       0.13725811       1.10068321 </v>
   <v>       1.33132128       1.08257931      -0.16563574 </v>
   <v>      -1.97753477       0.94260822       0.15450527 </v>
   <v>      -0.34153537       0.62162564       1.69333567 </v>
   <v>       0.33507855      -0.50327047      -0.54855069 </v>
   <v>      -1.04950180       1.01685145       0.50716688 </v>
   <v>      -0.00491300      -0.07283479       1.16316864 </v>
   <v>       0.15754032       0.23104237       0.68071607 </v>
   <v>      -0.20223282      -0.71345318      -1.05733456 </v>
   <v>      -0.99224314       0.53241853      -2.20384097 </v>
   <v>      -0.76570041      -1.22758444       0.09609635 </v>
   <v>       0.69514987      -0.55252635       0.44200138 </v>
   <v>      -0.73680068      -0.56353080       0.12690409 </v>
  </varray>
  <varray name="stress" >
   <v>     702.00704700     -36.27404639     -10.24679781 </v>
   <v>     -36.27404641     700.24833804      34.87590574 </v>
   <v>     -10.24679784      34.87590572     658.20989182 </v>
  </varray>
  <energy>
   <i name="e_fr_energy">   -412.21207977 </i>
   <i name="e_wo_entrp">   -412.17646402 </i>
   <i name="e_0_energy">     -0.07123149 </i>
  </energy>
  <time name="totalsc">   36.54   37.42</time>
  <eigenvalues>
   <array>
    <dimension dim="1">band</dimension>
    <dimension dim="2">kpoint</dimension>
    <dimension dim="3">spin</dimension>
    <field>eigene</field>
    <field>occ</field>
    <set>
     <set comment="spin 1">
      <set comment="kpoint 1">
       <r>   -3.0736    1.0000 </r>
       <r>   -1.9601    1.0000 </r>
       <r>   -1.8071    1.0000 </r>
       <r>   -1.7283    1.0000 </r>
       <r>   -1.6923    1.0000 </r>
       <r>   -1.5225    1.0000 </r>
       <r>   -1.4690    1.0000 </r>
       <r>   -0.6416    1.0000 </r>
       <r>   -0.5675    1.0000 </r>
       <r>   -0.5278    1.0000 </r>
       <r>   -0.5028    1.0000 </r>
       <r>   -0.4018    1.0000 </r>
       <r>   -0.3480    1.0000 </r>
       <r>   -0.3043    1.0000 </r>
       <r>   -0.2284    1.0000 </r>
       <r>   -0.1767    1.0000 </r>
       <r>   -0.0866    1.0000 </r>
       <r>   -0.0486    1.0000 </r>
       <r>    0.1903    1.0000 </r>
       <r>    0.7973    1.0000 </r>
       <r>    0.8893    1.0000 </r>
       <r>    0.9451    1.0000 </r>
       <r>    1.0296    1.0000 </r>
       <r>    1.1483    1.0000 </r>
       <r>    1.1675    1.0000 </r>
       <r>    1.2997    1.0000 </r>
       <r>    1.4295    1.0000 </r>
       <r>    2.2663    1.0000 </r>
       <r>    2.2778    1.0000 </r>
       <r>    2.3421    1.0000 </r>
       <r>    2.4102    1.0000 </r>
       <r>    2.5208    1.0000 </r>
       <r>    2.6035    1.0000 </r>
       <r>    3.2570    1.0000 </r>
       <r>    3.3005    1.0000 </r>
       <r>    3.3593    1.0000 </r>
       <r>    3.3969    1.0000 </r>
       <r>    3.4403    1.0000 </r>
       <r>    3.4570    1.0000 </r>
       <r>    3.5195    1.0000 </r>
       <r>    3.5579    1.0000 </r>
       <r>    3.5782    1.0000 </r>
       <r>    3.6372    1.0000 </r>
       <r>    3.6642    1.0000 </r>
       <r>    3.7255    1.0000 </r>
       <r>    3.7628    1.0000 </r>
       <r>    3.8209    1.0000 </r>
       <r>    3.8574    1.0000 </r>
       <r>    3.8752    1.0000 </r>
       <r>    3.8941    1.0000 </r>
       <r>    3.9840    1.0000 </r>
       <r>    4.0262    1.0000 </r>
       <r>    4.0650    1.0000 </r>
       <r>    4.1526    1.0000 </r>
       <r>    4.2313    1.0000 </r>
       <r>    4.2615    1.0000 </r>
       <r>    4.2815    1.0000 </r>
       <r>    4.6113    1.0000 </r>
       <r>    4.7072    1.0000 </r>
       <r>    4.7626    1.0000 </r>
       <r>    4.8111    1.0000 </r>
       <r>    4.8467    1.0000 </r>
       <r>    4.8718    1.0000 </r>
       <r>    4.9357    1.0000 </r>
       <r>    4.9502    1.0000 </r>
       <r>    5.0487    1.0000 </r>
       <r>    5.0841    1.0000 </r>
       <r>    5.1382    1.0000 </r>
       <r>    5.1878    1.0000 </r>
       <r>    5.2535    1.0000 </r>
       <r>    5.2696    1.0000 </r>
       <r>    5.3306    1.0000 </r>
       <r>    5.3461    1.0000 </r>
       <r>    5.3677    1.0000 </r>
       <r>    5.4106    1.0000 </r>
       <r>    5.4794    1.0000 </r>
       <r>    5.5292    1.0000 </r>
       <r>    5.6265    1.0000 </r>
       <r>    5.6621    1.0000 </r>
       <r>    5.7325    1.0000 </r>
       <r>    5.9759    1.0000 </r>
       <r>    7.2806    1.0000 </r>
       <r>    7.3519    1.0000 </r>
       <r>    7.3677    1.0000 </r>
       <r>    7.5015    1.0000 </r>
       <r>    7.5049    1.0000 </r>
       <r>    7.5830    1.0000 </r>
       <r>    7.6429    1.0000 </r>
       <r>    7.6814    1.0000 </r>
       <r>    7.7850    1.0000 </r>
       <r>    7.8005    1.0000 </r>
       <r>    7.8381    1.0000 </r>
       <r>    7.8883    1.0000 </r>
       <r>    8.2609    1.0000 </r>
       <r>    8.3198    1.0000 </r>
       <r>    8.4097    1.0000 </r>
       <r>    8.4368    1.0000 </r>
       <r>    8.4891    1.0000 </r>
       <r>    8.5030    1.0000 </r>
       <r>    8.5555    1.0000 </r>
       <r>    8.6727    1.0000 </r>
       <r>    8.7067    1.0000 </r>
       <r>    8.7492    1.0000 </r>
       <r>    8.8243    1.0000 </r>
       <r>    8.8593    1.0000 </r>
       <r>    8.9023    1.0000 </r>
       <r>    8.9294    1.0000 </r>
       <r>    8.9851    1.0000 </r>
       <r>    9.0429    1.0000 </r>
       <r>    9.0811    1.0000 </r>
       <r>    9.1097    1.0000 </r>
       <r>    9.1665    1.0000 </r>
       <r>    9.2310    1.0000 </r>
       <r>    9.2527    1.0000 </r>
       <r>    9.3410    1.0000 </r>
       <r>    9.3839    1.0000 </r>
       <r>    9.4088    1.0000 </r>
       <r>    9.4578    1.0000 </r>
       <r>    9.4936    1.0000 </r>
       <r>    9.5257    1.0000 </r>
       <r>    9.5987    1.0000 </r>
       <r>    9.7153    1.0000 </r>
       <r>    9.7859    1.0000 </r>
       <r>    9.9419    1.0000 </r>
       <r>    9.9631    1.0000 </r>
       <r>   10.0029    1.0000 </r>
       <r>   10.0878    1.0000 </r>
       <r>   10.1580    1.0000 </r>
       <r>   10.1904    1.0000 </r>
       <r>   10.2313    1.0000 </r>
       <r>   10.2399    1.0000 </r>
       <r>   10.2770    1.0000 </r>
       <r>   10.3304    1.0000 </r>
       <r>   10.3724    1.0000 </r>
       <r>   10.4551    1.0000 </r>
       <r>   10.4946    1.0000 </r>
       <r>   10.5067    1.0000 </r>
       <r>   10.5675    1.0000 </r>
       <r>   10.5931    1.0000 </r>
       <r>   10.6202    1.0000 </r>
       <r>   10.6570    1.0000 </r>
       <r>   10.7362    1.0000 </r>
       <r>   10.7726    1.0000 </r>
       <r>   10.8391    1.0000 </r>
       <r>   10.8443    1.0000 </r>
       <r>   10.9900    1.0000 </r>
       <r>   11.0443    1.0000 </r>
       <r>   11.2082    1.0000 </r>
       <r>   11.2338    1.0000 </r>
       <r>   11.3118    1.0000 </r>
       <r>   11.3617    1.0000 </r>
       <r>   11.3769    1.0000 </r>
       <r>   11.4247    1.0000 </r>
       <r>   11.5017    1.0000 </r>
       <r>   11.5163    1.0000 </r>
       <r>   11.6663    1.0000 </r>
       <r>   11.7264    1.0000 </r>
       <r>   11.7842    1.0000 </r>
       <r>   11.8041    1.0000 </r>
       <r>   11.8713    1.0000 </r>
       <r>   11.9141    1.0000 </r>
       <r>   11.9628    1.0000 </r>
       <r>   11.9752    1.0000 </r>
       <r>   11.9928    1.0000 </r>
       <r>   12.0944    1.0000 </r>
       <r>   12.1186    1.0000 </r>
       <r>   12.1532    1.0000 </r>
       <r>   12.2346    1.0000 </r>
       <r>   12.2832    1.0000 </r>
       <r>   12.3192    1.0000 </r>
       <r>   12.3903    1.0000 </r>
       <r>   12.8336    1.0000 </r>
       <r>   12.8747    1.0000 </r>
       <r>   13.0309    1.0000 </r>
       <r>   13.0527    1.0000 </r>
       <r>   13.1298    1.0000 </r>
       <r>   13.1951    1.0000 </r>
       <r>   13.2082    1.0000 </r>
       <r>   13.4231    1.0000 </r>
       <r>   13.5339    1.0000 </r>
       <r>   13.6594    1.0000 </r>
       <r>   13.7304    1.0000 </r>
       <r>   13.7852    1.0000 </r>
       <r>   13.8125    1.0000 </r>
       <r>   13.9346    1.0000 </r>
       <r>   13.9412    1.0000 </r>
       <r>   13.9962    1.0000 </r>
       <r>   14.0953    1.0000 </r>
       <r>   14.1135    1.0000 </r>
       <r>   14.1544    1.0000 </r>
       <r>   14.1975    1.0000 </r>
       <r>   14.2266    1.0000 </r>
       <r>   14.2613    1.0000 </r>
       <r>   14.3773    1.0000 </r>
       <r>   14.4514    1.0000 </r>
       <r>   14.4667    1.0000 </r>
       <r>   14.5355    1.0000 </r>
       <r>   14.5771    0.9997 </r>
       <r>   14.6572    0.8702 </r>
       <r>   14.6851    0.6321 </r>
       <r>   14.6963    0.5087 </r>
       <r>   14.7877    0.0052 </r>
       <r>   14.8386    0.0000 </r>
       <r>   14.8817    0.0000 </r>
       <r>   14.9085    0.0000 </r>
       <r>   14.9850    0.0000 </r>
       <r>   14.9938    0.0000 </r>
       <r>   15.0664    0.0000 </r>
       <r>   15.1233    0.0000 </r>
       <r>   15.1930    0.0000 </r>
       <r>   15.2170    0.0000 </r>
       <r>   15.2592    0.0000 </r>
       <r>   15.2934    0.0000 </r>
       <r>   15.3128    0.0000 </r>
       <r>   15.3826    0.0000 </r>
       <r>   15.3931    0.0000 </r>
       <r>   15.4065    0.0000 </r>
       <r>   15.4602    0.0000 </r>
       <r>   15.5097    0.0000 </r>
       <r>   15.5458    0.0000 </r>
       <r>   15.6002    0.0000 </r>
       <r>   15.6520    0.0000 </r>
       <r>   15.6878    0.0000 </r>
       <r>   15.7019    0.0000 </r>
       <r>   15.7631    0.0000 </r>
       <r>   15.7740    0.0000 </r>
       <r>   15.7983    0.0000 </r>
       <r>   15.8786    0.0000 </r>
       <r>   15.9150    0.0000 </r>
       <r>   15.9683    0.0000 </r>
       <r>   16.0203    0.0000 </r>
       <r>   16.0813    0.0000 </r>
       <r>   16.1193    0.0000 </r>
       <r>   16.1296    0.0000 </r>
       <r>   16.1652    0.0000 </r>
       <r>   16.1780    0.0000 </r>
       <r>   16.2239    0.0000 </r>
       <r>   16.2564    0.0000 </r>
       <r>   16.2697    0.0000 </r>
       <r>   16.3647    0.0000 </r>
       <r>   16.4354    0.0000 </r>
       <r>   16.4884    0.0000 </r>
       <r>   16.4911    0.0000 </r>
       <r>   16.5608    0.0000 </r>
       <r>   16.6209    0.0000 </r>
       <r>   16.6833    0.0000 </r>
       <r>   16.7702    0.0000 </r>
       <r>   16.8293    0.0000 </r>
       <r>   16.8416    0.0000 </r>
       <r>   17.0449    0.0000 </r>
       <r>   17.1050    0.0000 </r>
       <r>   17.8712    0.0000 </r>
       <r>   17.9342    0.0000 </r>
       <r>   17.9638    0.0000 </r>
       <r>   17.9799    0.0000 </r>
       <r>   18.1487    0.0000 </r>
       <r>   18.2244    0.0000 </r>
       <r>   18.4174    0.0000 </r>
       <r>   18.4917    0.0000 </r>
       <r>   18.5254    0.0000 </r>
       <r>   18.6001    0.0000 </r>
       <r>   18.6692    0.0000 </r>
       <r>   18.7108    0.0000 </r>
       <r>   18.7689    0.0000 </r>
       <r>   18.8419    0.0000 </r>
       <r>   18.9025    0.0000 </r>
       <r>   18.9259    0.0000 </r>
       <r>   18.9588    0.0000 </r>
       <r>   19.0123    0.0000 </r>
       <r>   19.0286    0.0000 </r>
       <r>   19.0752    0.0000 </r>
       <r>   19.0822    0.0000 </r>
       <r>   19.1402    0.0000 </r>
       <r>   19.1462    0.0000 </r>
       <r>   19.1534    0.0000 </r>
       <r>   19.2275    0.0000 </r>
       <r>   19.2568    0.0000 </r>
       <r>   19.2749    0.0000 </r>
       <r>   19.3127    0.0000 </r>
       <r>   19.3404    0.0000 </r>
       <r>   19.3782    0.0000 </r>
       <r>   19.4017    0.0000 </r>
       <r>   19.4412    0.0000 </r>
       <r>   19.4836    0.0000 </r>
       <r>   19.5321    0.0000 </r>
       <r>   19.5839    0.0000 </r>
       <r>   19.6261    0.0000 </r>
       <r>   19.6648    0.0000 </r>
       <r>   19.6777    0.0000 </r>
       <r>   19.7141    0.0000 </r>
       <r>   19.7431    0.0000 </r>
       <r>   19.7925    0.0000 </r>
       <r>   19.8086    0.0000 </r>
       <r>   19.8569    0.0000 </r>
       <r>   19.8689    0.0000 </r>
       <r>   19.9228    0.0000 </r>
       <r>   19.9778    0.0000 </r>
       <r>   20.0065    0.0000 </r>
       <r>   20.0530    0.0000 </r>
       <r>   20.1273    0.0000 </r>
       <r>   20.1624    0.0000 </r>
       <r>   20.2126    0.0000 </r>
       <r>   20.2653    0.0000 </r>
       <r>   20.3011    0.0000 </r>
      </set>
     </set>
     <set comment="spin 2">
      <set comment="kpoint 1">
       <r>   -3.0731    1.0000 </r>
       <r>   -1.9597    1.0000 </r>
       <r>   -1.8067    1.0000 </r>
       <r>   -1.7279    1.0000 </r>
       <r>   -1.6918    1.0000 </r>
       <r>   -1.5221    1.0000 </r>
       <r>   -1.4685    1.0000 </r>
       <r>   -0.6412    1.0000 </r>
       <r>   -0.5671    1.0000 </r>
       <r>   -0.5274    1.0000 </r>
       <r>   -0.5023    1.0000 </r>
       <r>   -0.4013    1.0000 </r>
       <r>   -0.3475    1.0000 </r>
       <r>   -0.3038    1.0000 </r>
       <r>   -0.2280    1.0000 </r>
       <r>   -0.1763    1.0000 </r>
       <r>   -0.0861    1.0000 </r>
       <r>   -0.0482    1.0000 </r>
       <r>    0.1907    1.0000 </r>
       <r>    0.7977    1.0000 </r>
       <r>    0.8897    1.0000 </r>
       <r>    0.9456    1.0000 </r>
       <r>    1.0300    1.0000 </r>
       <r>    1.1487    1.0000 </r>
       <r>    1.1679    1.0000 </r>
       <r>    1.3002    1.0000 </r>
       <r>    1.4300    1.0000 </r>
       <r>    2.2667    1.0000 </r>
       <r>    2.2782    1.0000 </r>
       <r>    2.3425    1.0000 </r>
       <r>    2.4107    1.0000 </r>
       <r>    2.5213    1.0000 </r>
       <r>    2.6039    1.0000 </r>
       <r>    3.2575    1.0000 </r>
       <r>    3.3009    1.0000 </r>
       <r>    3.3598    1.0000 </r>
       <r>    3.3973    1.0000 </r>
       <r>    3.4407    1.0000 </r>
       <r>    3.4574    1.0000 </r>
       <r>    3.5200    1.0000 </r>
       <r>    3.5583    1.0000 </r>
       <r>    3.5787    1.0000 </r>
       <r>    3.6376    1.0000 </r>
       <r>    3.6646    1.0000 </r>
       <r>    3.7259    1.0000 </r>
       <r>    3.7632    1.0000 </r>
       <r>    3.8214    1.0000 </r>
       <r>    3.8578    1.0000 </r>
       <r>    3.8756    1.0000 </r>
       <r>    3.8945    1.0000 </r>
       <r>    3.9844    1.0000 </r>
       <r>    4.0266    1.0000 </r>
       <r>    4.0654    1.0000 </r>
       <r>    4.1531    1.0000 </r>
       <r>    4.2317    1.0000 </r>
       <r>    4.2619    1.0000 </r>
       <r>    4.2820    1.0000 </r>
       <r>    4.6118    1.0000 </r>
       <r>    4.7077    1.0000 </r>
       <r>    4.7631    1.0000 </r>
       <r>    4.8115    1.0000 </r>
       <r>    4.8471    1.0000 </r>
       <r>    4.8722    1.0000 </r>
       <r>    4.9362    1.0000 </r>
       <r>    4.9506    1.0000 </r>
       <r>    5.0491    1.0000 </r>
       <r>    5.0845    1.0000 </r>
       <r>    5.1386    1.0000 </r>
       <r>    5.1883    1.0000 </r>
       <r>    5.2539    1.0000 </r>
       <r>    5.2701    1.0000 </r>
       <r>    5.3310    1.0000 </r>
       <r>    5.3466    1.0000 </r>
       <r>    5.3681    1.0000 </r>
       <r>    5.4110    1.0000 </r>
       <r>    5.4799    1.0000 </r>
       <r>    5.5296    1.0000 </r>
       <r>    5.6270    1.0000 </r>
       <r>    5.6625    1.0000 </r>
       <r>    5.7329    1.0000 </r>
       <r>    5.9763    1.0000 </r>
       <r>    7.2810    1.0000 </r>
       <r>    7.3523    1.0000 </r>
       <r>    7.3681    1.0000 </r>
       <r>    7.5019    1.0000 </r>
       <r>    7.5053    1.0000 </r>
       <r>    7.5834    1.0000 </r>
       <r>    7.6434    1.0000 </r>
       <r>    7.6818    1.0000 </r>
       <r>    7.7855    1.0000 </r>
       <r>    7.8009    1.0000 </r>
       <r>    7.8385    1.0000 </r>
       <r>    7.8888    1.0000 </r>
       <r>    8.2614    1.0000 </r>
       <r>    8.3202    1.0000 </r>
       <r>    8.4101    1.0000 </r>
       <r>    8.4373    1.0000 </r>
       <r>    8.4895    1.0000 </r>
       <r>    8.5034    1.0000 </r>
       <r>    8.5560    1.0000 </r>
       <r>    8.6731    1.0000 </r>
       <r>    8.7071    1.0000 </r>
       <r>    8.7496    1.0000 </r>
       <r>    8.8247    1.0000 </r>
       <r>    8.8597    1.0000 </r>
       <r>    8.9027    1.0000 </r>
       <r>    8.9298    1.0000 </r>
       <r>    8.9855    1.0000 </r>
       <r>    9.0433    1.0000 </r>
       <r>    9.0815    1.0000 </r>
       <r>    9.1102    1.0000 </r>
       <r>    9.1669    1.0000 </r>
       <r>    9.2313    1.0000 </r>
       <r>    9.2531    1.0000 </r>
       <r>    9.3415    1.0000 </r>
       <r>    9.3844    1.0000 </r>
       <r>    9.4091    1.0000 </r>
       <r>    9.4582    1.0000 </r>
       <r>    9.4941    1.0000 </r>
       <r>    9.5261    1.0000 </r>
       <r>    9.5991    1.0000 </r>
       <r>    9.7157    1.0000 </r>
       <r>    9.7863    1.0000 </r>
       <r>    9.9424    1.0000 </r>
       <r>    9.9637    1.0000 </r>
       <r>   10.0033    1.0000 </r>
       <r>   10.0883    1.0000 </r>
       <r>   10.1583    1.0000 </r>
       <r>   10.1909    1.0000 </r>
       <r>   10.2317    1.0000 </r>
       <r>   10.2403    1.0000 </r>
       <r>   10.2774    1.0000 </r>
       <r>   10.3309    1.0000 </r>
       <r>   10.3728    1.0000 </r>
       <r>   10.4555    1.0000 </r>
       <r>   10.4950    1.0000 </r>
       <r>   10.5071    1.0000 </r>
       <r>   10.5679    1.0000 </r>
       <r>   10.5936    1.0000 </r>
       <r>   10.6206    1.0000 </r>
       <r>   10.6575    1.0000 </r>
       <r>   10.7366    1.0000 </r>
       <r>   10.7730    1.0000 </r>
       <r>   10.8396    1.0000 </r>
       <r>   10.8448    1.0000 </r>
       <r>   10.9904    1.0000 </r>
       <r>   11.0447    1.0000 </r>
       <r>   11.2086    1.0000 </r>
       <r>   11.2342    1.0000 </r>
       <r>   11.3123    1.0000 </r>
       <r>   11.3622    1.0000 </r>
       <r>   11.3775    1.0000 </r>
       <r>   11.4251    1.0000 </r>
       <r>   11.5021    1.0000 </r>
       <r>   11.5168    1.0000 </r>
       <r>   11.6667    1.0000 </r>
       <r>   11.7269    1.0000 </r>
       <r>   11.7847    1.0000 </r>
       <r>   11.8045    1.0000 </r>
       <r>   11.8717    1.0000 </r>
       <r>   11.9146    1.0000 </r>
       <r>   11.9632    1.0000 </r>
       <r>   11.9756    1.0000 </r>
       <r>   11.9932    1.0000 </r>
       <r>   12.0949    1.0000 </r>
       <r>   12.1190    1.0000 </r>
       <r>   12.1536    1.0000 </r>
       <r>   12.2350    1.0000 </r>
       <r>   12.2836    1.0000 </r>
       <r>   12.3197    1.0000 </r>
       <r>   12.3907    1.0000 </r>
       <r>   12.8340    1.0000 </r>
       <r>   12.8751    1.0000 </r>
       <r>   13.0312    1.0000 </r>
       <r>   13.0532    1.0000 </r>
       <r>   13.1302    1.0000 </r>
       <r>   13.1956    1.0000 </r>
       <r>   13.2086    1.0000 </r>
       <r>   13.4235    1.0000 </r>
       <r>   13.5343    1.0000 </r>
       <r>   13.6598    1.0000 </r>
       <r>   13.7309    1.0000 </r>
       <r>   13.7857    1.0000 </r>
       <r>   13.8129    1.0000 </r>
       <r>   13.9350    1.0000 </r>
       <r>   13.9416    1.0000 </r>
       <r>   13.9967    1.0000 </r>
       <r>   14.0958    1.0000 </r>
       <r>   14.1139    1.0000 </r>
       <r>   14.1548    1.0000 </r>
       <r>   14.1980    1.0000 </r>
       <r>   14.2269    1.0000 </r>
       <r>   14.2618    1.0000 </r>
       <r>   14.3778    1.0000 </r>
       <r>   14.4518    1.0000 </r>
       <r>   14.4671    1.0000 </r>
       <r>   14.5359    1.0000 </r>
[...]
       <r>    -1.1475     0.0000     7.0000 </r>
       <r>    -1.0614     0.0000     7.0000 </r>
       <r>    -0.9753     0.0000     7.0000 </r>
       <r>    -0.8892     0.0000     7.0000 </r>
       <r>    -0.8031     0.0000     7.0000 </r>
       <r>    -0.7169     0.1865     7.0161 </r>
       <r>    -0.6308     7.3928     7.6528 </r>
       <r>    -0.5447    17.5193     9.1616 </r>
       <r>    -0.4586    20.4033    10.9188 </r>
       <r>    -0.3724    13.2464    12.0596 </r>
       <r>    -0.2863    19.0195    13.6976 </r>
       <r>    -0.2002    15.5061    15.0330 </r>
       <r>    -0.1141    13.6156    16.2056 </r>
       <r>    -0.0279    16.9577    17.6661 </r>
       <r>     0.0582     3.8628    17.9987 </r>
       <r>     0.1443     1.1133    18.0946 </r>
       <r>     0.2304     8.9951    18.8693 </r>
       <r>     0.3165     1.5153    18.9998 </r>
       <r>     0.4027     0.0022    19.0000 </r>
       <r>     0.4888     0.0000    19.0000 </r>
       <r>     0.5749     0.0000    19.0000 </r>
       <r>     0.6610     0.0006    19.0001 </r>
       <r>     0.7472     0.8847    19.0763 </r>
       <r>     0.8333     9.5487    19.8986 </r>
       <r>     0.9194    13.1336    21.0297 </r>
       <r>     1.0055    13.5738    22.1987 </r>
       <r>     1.0916     9.6301    23.0281 </r>
       <r>     1.1778    15.9803    24.4044 </r>
       <r>     1.2639     8.6400    25.1485 </r>
       <r>     1.3500     9.1036    25.9325 </r>
       <r>     1.4361     7.3896    26.5689 </r>
       <r>     1.5223     4.9527    26.9955 </r>
       <r>     1.6084     0.0526    27.0000 </r>
       <r>     1.6945     0.0000    27.0000 </r>
       <r>     1.7806     0.0000    27.0000 </r>
       <r>     1.8668     0.0000    27.0000 </r>
       <r>     1.9529     0.0000    27.0000 </r>
       <r>     2.0390     0.0000    27.0000 </r>
       <r>     2.1251     0.0004    27.0000 </r>
       <r>     2.2112     1.0157    27.0875 </r>
       <r>     2.2974    17.7333    28.6147 </r>
       <r>     2.3835    17.1953    30.0957 </r>
       <r>     2.4696    10.7774    31.0238 </r>
       <r>     2.5557    10.4208    31.9213 </r>
       <r>     2.6419    10.8763    32.8580 </r>
       <r>     2.7280     1.6461    32.9998 </r>
       <r>     2.8141     0.0026    33.0000 </r>
       <r>     2.9002     0.0000    33.0000 </r>
       <r>     2.9863     0.0000    33.0000 </r>
       <r>     3.0725     0.0000    33.0000 </r>
       <r>     3.1586     0.0302    33.0026 </r>
       <r>     3.2447     4.7924    33.4153 </r>
       <r>     3.3308    18.6324    35.0200 </r>
       <r>     3.4170    23.4087    37.0360 </r>
       <r>     3.5031    25.7411    39.2529 </r>
       <r>     3.5892    26.1216    41.5026 </r>
       <r>     3.6753    23.8292    43.5548 </r>
       <r>     3.7615    21.0585    45.3684 </r>
       <r>     3.8476    24.2107    47.4535 </r>
       <r>     3.9337    28.1663    49.8793 </r>
       <r>     4.0198    17.2379    51.3639 </r>
       <r>     4.1059    18.4494    52.9528 </r>
       <r>     4.1921    12.4547    54.0254 </r>
       <r>     4.2782    23.4002    56.0407 </r>
       <r>     4.3643    11.0005    56.9881 </r>
       <r>     4.4504     0.1380    57.0000 </r>
       <r>     4.5366     0.1939    57.0167 </r>
       <r>     4.6227     7.1135    57.6293 </r>
       <r>     4.7088    10.9681    58.5739 </r>
       <r>     4.7949    19.0376    60.2135 </r>
       <r>     4.8811    26.4329    62.4900 </r>
       <r>     4.9672    23.2999    64.4966 </r>
       <r>     5.0533    14.4530    65.7414 </r>
       <r>     5.1394    20.7469    67.5282 </r>
       <r>     5.2255    18.9932    69.1639 </r>
       <r>     5.3117    25.2722    71.3404 </r>
       <r>     5.3978    31.5773    74.0599 </r>
       <r>     5.4839    18.1571    75.6237 </r>
       <r>     5.5700    15.1270    76.9265 </r>
       <r>     5.6562    15.2438    78.2393 </r>
       <r>     5.7423    15.7019    79.5916 </r>
       <r>     5.8284     4.7020    79.9965 </r>
       <r>     5.9145     0.5084    80.0403 </r>
       <r>     6.0006     8.2937    80.7546 </r>
       <r>     6.0868     2.8390    80.9991 </r>
       <r>     6.1729     0.0103    81.0000 </r>
       <r>     6.2590     0.0000    81.0000 </r>
       <r>     6.3451     0.0000    81.0000 </r>
       <r>     6.4313     0.0000    81.0000 </r>
       <r>     6.5174     0.0000    81.0000 </r>
       <r>     6.6035     0.0000    81.0000 </r>
       <r>     6.6896     0.0000    81.0000 </r>
       <r>     6.7758     0.0000    81.0000 </r>
       <r>     6.8619     0.0000    81.0000 </r>
       <r>     6.9480     0.0000    81.0000 </r>
       <r>     7.0341     0.0000    81.0000 </r>
       <r>     7.1202     0.0000    81.0000 </r>
       <r>     7.2064     0.2017    81.0174 </r>
       <r>     7.2925     7.7932    81.6885 </r>
       <r>     7.3786    19.7071    83.3858 </r>
       <r>     7.4647    10.2497    84.2685 </r>
       <r>     7.5509    20.1218    86.0015 </r>
       <r>     7.6370    16.9987    87.4654 </r>
       <r>     7.7231    16.8848    88.9196 </r>
       <r>     7.8092    19.0281    90.5584 </r>
       <r>     7.8954    22.7155    92.5147 </r>
       <r>     7.9815     5.5839    92.9956 </r>
       <r>     8.0676     0.0513    93.0000 </r>
       <r>     8.1537     0.0135    93.0012 </r>
       <r>     8.2398     3.2686    93.2827 </r>
       <r>     8.3260    14.5976    94.5399 </r>
       <r>     8.4121    14.3416    95.7750 </r>
       <r>     8.4982    26.3145    98.0413 </r>
       <r>     8.5843    20.1939    99.7804 </r>
       <r>     8.6705     9.8869   100.6319 </r>
       <r>     8.7566    21.8850   102.5167 </r>
       <r>     8.8427    17.8904   104.0575 </r>
       <r>     8.9288    25.8884   106.2871 </r>
       <r>     9.0149    20.2769   108.0334 </r>
       <r>     9.1011    23.8580   110.0881 </r>
       <r>     9.1872    20.3170   111.8379 </r>
       <r>     9.2733    20.7502   113.6249 </r>
       <r>     9.3594    16.1387   115.0148 </r>
       <r>     9.4456    26.0831   117.2612 </r>
       <r>     9.5317    25.1562   119.4277 </r>
       <r>     9.6178    14.7630   120.6991 </r>
       <r>     9.7039     7.8765   121.3775 </r>
       <r>     9.7901    13.3164   122.5243 </r>
       <r>     9.8762     5.8926   123.0318 </r>
       <r>     9.9623    14.9675   124.3209 </r>
       <r>    10.0484    19.7307   126.0201 </r>
       <r>    10.1345    13.8747   127.2151 </r>
       <r>    10.2207    26.3418   129.4837 </r>
       <r>    10.3068    29.5494   132.0286 </r>
       <r>    10.3929    19.5896   133.7157 </r>
       <r>    10.4790    18.3020   135.2919 </r>
       <r>    10.5652    27.5786   137.6671 </r>
       <r>    10.6513    29.2384   140.1851 </r>
       <r>    10.7374    17.0862   141.6567 </r>
       <r>    10.8235    21.5808   143.5153 </r>
       <r>    10.9097    16.7074   144.9542 </r>
       <r>    10.9958     8.0036   145.6434 </r>
       <r>    11.0819    13.9997   146.8491 </r>
       <r>    11.1680     3.5588   147.1556 </r>
       <r>    11.2541    17.5332   148.6656 </r>
       <r>    11.3403    17.8897   150.2064 </r>
       <r>    11.4264    25.6764   152.4177 </r>
       <r>    11.5125    19.0779   154.0607 </r>
       <r>    11.5986    11.0667   155.0138 </r>
       <r>    11.6848     9.3036   155.8151 </r>
       <r>    11.7709    18.5495   157.4126 </r>
       <r>    11.8570    21.9470   159.3027 </r>
       <r>    11.9431    23.3204   161.3112 </r>
       <r>    12.0292    28.7487   163.7871 </r>
       <r>    12.1154    17.7706   165.3175 </r>
       <r>    12.2015    20.5041   167.0834 </r>
       <r>    12.2876    18.3166   168.6609 </r>
       <r>    12.3737    18.4200   170.2473 </r>
       <r>    12.4599     8.4470   170.9748 </r>
       <r>    12.5460     0.2931   171.0000 </r>
       <r>    12.6321     0.0001   171.0000 </r>
       <r>    12.7182     0.0062   171.0005 </r>
       <r>    12.8044     2.5892   171.2235 </r>
       <r>    12.8905    16.1349   172.6131 </r>
       <r>    12.9766     5.3549   173.0743 </r>
       <r>    13.0627    15.9557   174.4484 </r>
       <r>    13.1488    16.1093   175.8358 </r>
       <r>    13.2350    20.9219   177.6377 </r>
       <r>    13.3211     4.2182   178.0010 </r>
       <r>    13.4072     3.7334   178.3225 </r>
       <r>    13.4933     9.0188   179.0992 </r>
       <r>    13.5795     9.4241   179.9108 </r>
       <r>    13.6656     7.9744   180.5976 </r>
       <r>    13.7517    15.4381   181.9272 </r>
       <r>    13.8378    20.4964   183.6924 </r>
       <r>    13.9240    11.7474   184.7041 </r>
       <r>    14.0101    22.1730   186.6137 </r>
       <r>    14.0962    14.4833   187.8611 </r>
       <r>    14.1823    27.0809   190.1933 </r>
       <r>    14.2684    25.9954   192.4321 </r>
       <r>    14.3546     9.5557   193.2551 </r>
       <r>    14.4407    15.2699   194.5702 </r>
       <r>    14.5268    21.3833   196.4118 </r>
       <r>    14.6129    17.9273   197.9557 </r>
       <r>    14.6991    24.2163   200.0413 </r>
       <r>    14.7852    17.2339   201.5255 </r>
       <r>    14.8713    21.0019   203.3343 </r>
       <r>    14.9574    22.3838   205.2620 </r>
       <r>    15.0435    21.7526   207.1354 </r>
       <r>    15.1297    16.6767   208.5717 </r>
       <r>    15.2158    20.5022   210.3374 </r>
       <r>    15.3019    29.2518   212.8566 </r>
       <r>    15.3880    28.2807   215.2922 </r>
       <r>    15.4742    28.8861   217.7800 </r>
       <r>    15.5603    22.3593   219.7056 </r>
       <r>    15.6464    20.9267   221.5079 </r>
       <r>    15.7325    29.2321   224.0255 </r>
       <r>    15.8187    29.8312   226.5946 </r>
       <r>    15.9048    18.4296   228.1818 </r>
       <r>    15.9909    20.2195   229.9232 </r>
       <r>    16.0770    19.2286   231.5792 </r>
       <r>    16.1631    34.5855   234.5578 </r>
       <r>    16.2493    33.2450   237.4210 </r>
       <r>    16.3354    20.1514   239.1565 </r>
       <r>    16.4215    13.7418   240.3399 </r>
       <r>    16.5076    24.1920   242.4234 </r>
       <r>    16.5938    18.7934   244.0420 </r>
       <r>    16.6799    15.9215   245.4132 </r>
       <r>    16.7660    12.4952   246.4893 </r>
       <r>    16.8521    21.4735   248.3387 </r>
       <r>    16.9382     7.6431   248.9969 </r>
       <r>    17.0244     3.3738   249.2875 </r>
       <r>    17.1105    14.3692   250.5250 </r>
       <r>    17.1966     5.4584   250.9951 </r>
       <r>    17.2827     0.0573   251.0000 </r>
       <r>    17.3689     0.0000   251.0000 </r>
       <r>    17.4550     0.0000   251.0000 </r>
       <r>    17.5411     0.0000   251.0000 </r>
       <r>    17.6272     0.0000   251.0000 </r>
       <r>    17.7134     0.0000   251.0000 </r>
       <r>    17.7995     0.2407   251.0207 </r>
       <r>    17.8856     8.5074   251.7534 </r>
       <r>    17.9717    24.2154   253.8389 </r>
       <r>    18.0578    13.3248   254.9865 </r>
       <r>    18.1440     5.4199   255.4532 </r>
       <r>    18.2301    12.7250   256.5492 </r>
       <r>    18.3162     5.2019   256.9972 </r>
       <r>    18.4023     3.9250   257.3352 </r>
       <r>    18.4885    14.4657   258.5810 </r>
       <r>    18.5746    18.1180   260.1414 </r>
       <r>    18.6607    15.0109   261.4342 </r>
       <r>    18.7468    19.2686   263.0936 </r>
       <r>    18.8330    15.0270   264.3878 </r>
       <r>    18.9191    21.1928   266.2130 </r>
       <r>    19.0052    27.6173   268.5915 </r>
       <r>    19.0913    32.5454   271.3944 </r>
       <r>    19.1774    35.9728   274.4925 </r>
       <r>    19.2636    27.6874   276.8770 </r>
       <r>    19.3497    32.8466   279.7058 </r>
       <r>    19.4358    30.0911   282.2974 </r>
       <r>    19.5219    22.8841   284.2682 </r>
       <r>    19.6081    21.3794   286.1095 </r>
       <r>    19.6942    31.2681   288.8024 </r>
       <r>    19.7803    30.1605   291.3999 </r>
       <r>    19.8664    30.7592   294.0489 </r>
       <r>    19.9525    24.6115   296.1686 </r>
       <r>    20.0387    19.9449   297.8863 </r>
       <r>    20.1248    21.1829   299.7106 </r>
       <r>    20.2109    19.9313   301.4271 </r>
       <r>    20.2970     9.9899   302.2875 </r>
       <r>    20.3832    10.1122   303.1584 </r>
       <r>    20.4693     9.0691   303.9394 </r>
       <r>    20.5554     0.7028   304.0000 </r>
       <r>    20.6415     0.0004   304.0000 </r>
       <r>    20.7277     0.0000   304.0000 </r>
       <r>    20.8138     0.0000   304.0000 </r>
       <r>    20.8999     0.0000   304.0000 </r>
       <r>    20.9860     0.0000   304.0000 </r>
       <r>    21.0721     0.0000   304.0000 </r>
       <r>    21.1583     0.0000   304.0000 </r>
       <r>    21.2444     0.0000   304.0000 </r>
       <r>    21.3305     0.0000   304.0000 </r>
       <r>    21.4166     0.0000   304.0000 </r>
       <r>    21.5028     0.0000   304.0000 </r>
       <r>    21.5889     0.0000   304.0000 </r>
      </set>
     </set>
    </array>
   </total>
  </dos>
 </calculation>
 <structure name="finalpos" >
  <crystal>
   <varray name="basis" >
    <v>      10.21149500       0.00000000       0.00000000 </v>
    <v>       0.00000000      10.21149500       0.00000000 </v>
    <v>       0.00000000       0.00000000      10.21149500 </v>
   </varray>
   <i name="volume">   1064.79986425 </i>
   <varray name="rec_basis" >
    <v>       0.09792885       0.00000000       0.00000000 </v>
    <v>       0.00000000       0.09792885       0.00000000 </v>
    <v>       0.00000000       0.00000000       0.09792885 </v>
   </varray>
  </crystal>
  <varray name="positions" >
   <v>       0.82329218       0.76851734       0.09241282 </v>
   <v>       0.81654136       0.89999878       0.90624585 </v>
   <v>       0.69400710       0.14016537       0.42063332 </v>
   <v>       0.78825755       0.22019881       0.85620764 </v>
   <v>       0.30635162       0.99086412       0.40469755 </v>
   <v>       0.61183999       0.79946932       0.84726840 </v>
   <v>       0.49607506       0.57822689       0.43911827 </v>
   <v>       0.50171606       0.54611191       0.21590355 </v>
   <v>       0.55086763       0.96376623       0.27884565 </v>
   <v>       0.01200950       0.00179592       0.87842769 </v>
   <v>       0.18644136       0.19045664       0.44239967 </v>
   <v>       0.81164041       0.41810665       0.41537483 </v>
   <v>       0.97575879       0.22001499       0.77527953 </v>
   <v>       0.77080457       0.31849000       0.63231770 </v>
   <v>       0.89129378       0.18342603       0.52227436 </v>
   <v>       0.08147720       0.99428056       0.42772356 </v>
   <v>       0.05048350       0.08087670       0.62761682 </v>
   <v>       0.18143171       0.26546534       0.98166331 </v>
   <v>       0.43877934       0.19728874       0.36351181 </v>
   <v>       0.60499251       0.73184103       0.29987509 </v>
   <v>       0.57188110       0.68935411       0.04665193 </v>
   <v>       0.99917554       0.38868648       0.61645273 </v>
   <v>       0.61671724       0.24924822       0.99799246 </v>
   <v>       0.32099492       0.65482478       0.31408741 </v>
   <v>       0.89548935       0.07792473       0.31832058 </v>
   <v>       0.02100094       0.37545061       0.12807439 </v>
   <v>       0.17900258       0.04587213       0.02600853 </v>
   <v>       0.04153574       0.35408929       0.38354188 </v>
   <v>       0.29197498       0.43850837       0.07391288 </v>
   <v>       0.63495267       0.07262443       0.84996271 </v>
   <v>       0.67105816       0.89798438       0.45635708 </v>
   <v>       0.18271673       0.13156428       0.81281419 </v>
   <v>       0.22692789       0.81973511       0.04893201 </v>
   <v>       0.09421118       0.58384350       0.43038820 </v>
   <v>       0.23588750       0.29867537       0.24603440 </v>
   <v>       0.01755463       0.79975665       0.97886803 </v>
   <v>       0.41042394       0.81551634       0.19328649 </v>
   <v>       0.73601965       0.58390040       0.21933057 </v>
   <v>       0.09750482       0.13142571       0.23467651 </v>
   <v>       0.48710517       0.05326125       0.06524951 </v>
   <v>       0.77849512       0.65150029       0.90905622 </v>
   <v>       0.41840504       0.49655863       0.64521728 </v>
   <v>       0.97261165       0.95366614       0.14310245 </v>
   <v>       0.89235954       0.58513058       0.57154227 </v>
   <v>       0.45512239       0.28426288       0.57006942 </v>
   <v>       0.20658973       0.48241663       0.60048524 </v>
   <v>       0.86316724       0.26009737       0.22240945 </v>
   <v>       0.63623397       0.14573018       0.62888186 </v>
   <v>       0.41816786       0.07346603       0.81655223 </v>
   <v>       0.79274974       0.07462149       0.06258388 </v>
   <v>       0.36415726       0.29685634       0.78328090 </v>
   <v>       0.14776122       0.50345155       0.24035795 </v>
   <v>       0.24913580       0.92795903       0.82901260 </v>
   <v>       0.96790950       0.61440690       0.81502601 </v>
   <v>       0.47485780       0.32417007       0.17850090 </v>
   <v>       0.02444157       0.83853011       0.73817889 </v>
   <v>       0.09467066       0.65041857       0.63788828 </v>
   <v>       0.74734816       0.70233644       0.47858604 </v>
   <v>       0.11521741       0.60986330       0.01501768 </v>
   <v>       0.62198689       0.93755371       0.67160254 </v>
   <v>       0.61840230       0.89695172       0.05645383 </v>
   <v>       0.31958866       0.09375199       0.61978917 </v>
   <v>       0.65312846       0.50077907       0.58153835 </v>
   <v>       0.11016036       0.72804364       0.23063342 </v>
   <v>       0.45355768       0.46204919       0.92173634 </v>
   <v>       0.18792606       0.92760306       0.23312473 </v>
   <v>       0.93260438       0.57655476       0.28604440 </v>
   <v>       0.17562002       0.27064823       0.65033729 </v>
   <v>       0.80920551       0.44914785       0.79980551 </v>
   <v>       0.79972511       0.76974351       0.72273090 </v>
   <v>       0.58219624       0.30693782       0.77952993 </v>
   <v>       0.24366109       0.47067222       0.82728445 </v>
   <v>       0.19570719       0.70447618       0.81716517 </v>
   <v>       0.58084570       0.71593190       0.61800794 </v>
   <v>       0.64259964       0.48621079       0.02314509 </v>
   <v>       0.43334899       0.80257337       0.43361192 </v>
   <v>       0.41860139       0.84447145       0.94521850 </v>
   <v>       0.31278309       0.44358324       0.41998924 </v>
   <v>       0.90703359       0.55208018       0.06087972 </v>
   <v>       0.61976713       0.55807636       0.79017832 </v>
   <v>       0.59503746       0.36141975       0.42019900 </v>
   <v>       0.19533124       0.79227273       0.43092554 </v>
   <v>       0.82681077       0.01899379       0.71672502 </v>
   <v>       0.31915180       0.70473471       0.60067835 </v>
   <v>       0.38765773       0.22945631       0.99088615 </v>
   <v>       0.63740040       0.16115535       0.20108016 </v>
   <v>       0.34433136       0.64162064       0.04207239 </v>
   <v>       0.87002217       0.96382939       0.50134471 </v>
   <v>       0.40684356       0.64909927       0.81247251 </v>
   <v>       0.76607079       0.92173428       0.23822173 </v>
   <v>       0.50066685       0.02229918       0.49358414 </v>
   <v>       0.68396675       0.37925681       0.22367303 </v>
   <v>       0.42461334       0.86347621       0.69902928 </v>
   <v>       0.82258337       0.35869459       0.01117055 </v>
   <v>       0.91366377       0.78783587       0.31107110 </v>
   <v>       0.98222415       0.17705321       0.03233337 </v>
   <v>       0.03935672       0.41036998       0.90705524 </v>
   <v>       0.99218009       0.79755158       0.51877448 </v>
   <v>       0.19636743       0.91203453       0.61286109 </v>
   <v>       0.33167279       0.10222235       0.19254566 </v>
  </varray>
 </structure>
</modeling>
