unknown system                          
           1
    10.211495    0.000000    0.000000
     0.000000   10.211495    0.000000
     0.000000    0.000000   10.211495
   Si
 100
Direct configuration=     1
   0.82329218  0.76851734  0.09241282
   0.81654136  0.89999878  0.90624585
   0.69400710  0.14016537  0.42063332
   0.78825755  0.22019881  0.85620764
   0.30635162  0.99086412  0.40469755
   0.61183999  0.79946932  0.84726840
   0.49607506  0.57822689  0.43911827
   0.50171606  0.54611191  0.21590355
   0.55086763  0.96376623  0.27884565
   0.01200950  0.00179592  0.87842769
   0.18644136  0.19045664  0.44239967
   0.81164041  0.41810665  0.41537483
   0.97575879  0.22001499  0.77527953
   0.77080457  0.31849000  0.63231770
   0.89129378  0.18342603  0.52227436
   0.08147720  0.99428056  0.42772356
   0.05048350  0.08087670  0.62761682
   0.18143171  0.26546534  0.98166331
   0.43877934  0.19728874  0.36351181
   0.60499251  0.73184103  0.29987509
   0.57188110  0.68935411  0.04665193
   0.99917554  0.38868648  0.61645273
   0.61671724  0.24924822  0.99799246
   0.32099492  0.65482478  0.31408741
   0.89548935  0.07792473  0.31832058
   0.02100094  0.37545061  0.12807439
   0.17900258  0.04587213  0.02600853
   0.04153574  0.35408929  0.38354188
   0.29197498  0.43850837  0.07391288
   0.63495267  0.07262443  0.84996271
   0.67105816  0.89798438  0.45635708
   0.18271673  0.13156428  0.81281419
   0.22692789  0.81973511  0.04893201
   0.09421118  0.58384350  0.43038820
   0.23588750  0.29867537  0.24603440
   0.01755463  0.79975665  0.97886803
   0.41042394  0.81551634  0.19328649
   0.73601965  0.58390040  0.21933057
   0.09750482  0.13142571  0.23467651
   0.48710517  0.05326125  0.06524951
   0.77849512  0.65150029  0.90905622
   0.41840504  0.49655863  0.64521728
   0.97261165  0.95366614  0.14310245
   0.89235954  0.58513058  0.57154227
   0.45512239  0.28426288  0.57006942
   0.20658973  0.48241663  0.60048524
   0.86316724  0.26009737  0.22240945
   0.63623397  0.14573018  0.62888186
   0.41816786  0.07346603  0.81655223
   0.79274974  0.07462149  0.06258388
   0.36415726  0.29685634  0.78328090
   0.14776122  0.50345155  0.24035795
   0.24913580  0.92795903  0.82901260
   0.96790950  0.61440690  0.81502601
   0.47485780  0.32417007  0.17850090
   0.02444157  0.83853011  0.73817889
   0.09467066  0.65041857  0.63788828
   0.74734816  0.70233644  0.47858604
   0.11521741  0.60986330  0.01501768
   0.62198689  0.93755371  0.67160254
   0.61840230  0.89695172  0.05645383
   0.31958866  0.09375199  0.61978917
   0.65312846  0.50077907  0.58153835
   0.11016036  0.72804364  0.23063342
   0.45355768  0.46204919  0.92173634
   0.18792606  0.92760306  0.23312473
   0.93260438  0.57655476  0.28604440
   0.17562002  0.27064823  0.65033729
   0.80920551  0.44914785  0.79980551
   0.79972511  0.76974351  0.72273090
   0.58219624  0.30693782  0.77952993
   0.24366109  0.47067222  0.82728445
   0.19570719  0.70447618  0.81716517
   0.58084570  0.71593190  0.61800794
   0.64259964  0.48621079  0.02314509
   0.43334899  0.80257337  0.43361192
   0.41860139  0.84447145  0.94521850
   0.31278309  0.44358324  0.41998924
   0.90703359  0.55208018  0.06087972
   0.61976713  0.55807636  0.79017832
   0.59503746  0.36141975  0.42019900
   0.19533124  0.79227273  0.43092554
   0.82681077  0.01899379  0.71672502
   0.31915180  0.70473471  0.60067835
   0.38765773  0.22945631  0.99088615
   0.63740040  0.16115535  0.20108016
   0.34433136  0.64162064  0.04207239
   0.87002217  0.96382939  0.50134471
   0.40684356  0.64909927  0.81247251
   0.76607079  0.92173428  0.23822173
   0.50066685  0.02229918  0.49358414
   0.68396675  0.37925681  0.22367303
   0.42461334  0.86347621  0.69902928
   0.82258337  0.35869459  0.01117055
   0.91366377  0.78783587  0.31107110
   0.98222415  0.17705321  0.03233337
   0.03935672  0.41036998  0.90705524
   0.99218009  0.79755158  0.51877448
   0.19636743  0.91203453  0.61286109
   0.33167279  0.10222235  0.19254566
