 100 100   0   0
  0.1064800E+02  0.1021150E-08  0.1021150E-08  0.1021150E-08  0.5000000E-15
  1.000000000000000E-004
  CAR 
 unknown system                          
     21.51511616     -4.37803862  301     14.64258180      1.00000000
     -4.378  0.0000E+00  0.0000E+00  0.0000E+00  0.0000E+00
     -4.292  0.0000E+00  0.0000E+00  0.0000E+00  0.0000E+00
     -4.205  0.0000E+00  0.0000E+00  0.0000E+00  0.0000E+00
     -4.119  0.0000E+00  0.0000E+00  0.0000E+00  0.0000E+00
     -4.033  0.0000E+00  0.0000E+00  0.0000E+00  0.0000E+00
     -3.946  0.0000E+00  0.0000E+00  0.0000E+00  0.0000E+00
     -3.860  0.0000E+00  0.0000E+00  0.0000E+00  0.0000E+00
     -3.774  0.0000E+00  0.0000E+00  0.0000E+00  0.0000E+00
     -3.688  0.0000E+00  0.0000E+00  0.0000E+00  0.0000E+00
     -3.601  0.0000E+00  0.0000E+00  0.0000E+00  0.0000E+00
     -3.515  0.0000E+00  0.0000E+00  0.0000E+00  0.0000E+00
     -3.429  0.7107E-09  0.6564E-09  0.6134E-10  0.5666E-10
     -3.342  0.3752E-03  0.3565E-03  0.3238E-04  0.3077E-04
     -3.256  0.6965E+00  0.6800E+00  0.6015E-01  0.5872E-01
     -3.170  0.8719E+01  0.8697E+01  0.8127E+00  0.8094E+00
     -3.083  0.2166E+01  0.2203E+01  0.9996E+00  0.9995E+00
     -2.997  0.5050E-02  0.5273E-02  0.1000E+01  0.1000E+01
     -2.911  0.4587E-07  0.4927E-07  0.1000E+01  0.1000E+01
     -2.824  0.1286E-14  0.1286E-14  0.1000E+01  0.1000E+01
     -2.738  0.0000E+00  0.0000E+00  0.1000E+01  0.1000E+01
     -2.652  0.0000E+00  0.0000E+00  0.1000E+01  0.1000E+01
     -2.566  0.0000E+00  0.0000E+00  0.1000E+01  0.1000E+01
     -2.479  0.3223E-10  0.2939E-10  0.1000E+01  0.1000E+01
     -2.393  0.4994E-04  0.4697E-04  0.1000E+01  0.1000E+01
     -2.307  0.2586E+00  0.2506E+00  0.1022E+01  0.1022E+01
     -2.220  0.7476E+01  0.7429E+01  0.1668E+01  0.1663E+01
     -2.134  0.3934E+01  0.3985E+01  0.2007E+01  0.2007E+01
     -2.048  0.6612E+01  0.6546E+01  0.2578E+01  0.2572E+01
     -1.961  0.1377E+02  0.1380E+02  0.3766E+01  0.3763E+01
     -1.875  0.2699E+01  0.2743E+01  0.3999E+01  0.3999E+01
     -1.789  0.3326E+00  0.3240E+00  0.4028E+01  0.4027E+01
     -1.702  0.1061E+02  0.1053E+02  0.4944E+01  0.4936E+01
     -1.616  0.1176E+02  0.1184E+02  0.5959E+01  0.5958E+01
     -1.530  0.7904E+00  0.7954E+00  0.6027E+01  0.6026E+01
     -1.443  0.7767E+01  0.7729E+01  0.6698E+01  0.6694E+01
     -1.357  0.3486E+01  0.3532E+01  0.6998E+01  0.6998E+01
     -1.271  0.1790E-01  0.1858E-01  0.7000E+01  0.7000E+01
     -1.185  0.3580E-03  0.3381E-03  0.7000E+01  0.7000E+01
     -1.098  0.6810E+00  0.6628E+00  0.7059E+01  0.7057E+01
     -1.012  0.8699E+01  0.8674E+01  0.7810E+01  0.7806E+01
     -0.926  0.2277E+01  0.2317E+01  0.8006E+01  0.8006E+01
     -0.839  0.8107E+01  0.8017E+01  0.8706E+01  0.8698E+01
     -0.753  0.1478E+02  0.1485E+02  0.9981E+01  0.9979E+01
     -0.667  0.8575E+01  0.8555E+01  0.1072E+02  0.1072E+02
     -0.580  0.3213E+01  0.3258E+01  0.1100E+02  0.1100E+02
     -0.494  0.5922E+00  0.5811E+00  0.1105E+02  0.1105E+02
     -0.408  0.8759E+01  0.8731E+01  0.1181E+02  0.1180E+02
     -0.321  0.1434E+02  0.1428E+02  0.1304E+02  0.1303E+02
     -0.235  0.1346E+02  0.1351E+02  0.1421E+02  0.1420E+02
     -0.149  0.1661E+02  0.1660E+02  0.1564E+02  0.1563E+02
     -0.063  0.7685E+01  0.7691E+01  0.1630E+02  0.1630E+02
      0.024  0.1706E+02  0.1707E+02  0.1778E+02  0.1777E+02
      0.110  0.2654E+01  0.2699E+01  0.1800E+02  0.1800E+02
      0.196  0.5077E+01  0.5020E+01  0.1844E+02  0.1844E+02
      0.283  0.6333E+01  0.6388E+01  0.1899E+02  0.1899E+02
      0.369  0.1253E+00  0.1296E+00  0.1900E+02  0.1900E+02
      0.455  0.1915E-03  0.1828E-03  0.1900E+02  0.1900E+02
      0.542  0.5173E+00  0.5036E+00  0.1904E+02  0.1904E+02
      0.628  0.1248E+02  0.1241E+02  0.2012E+02  0.2011E+02
      0.714  0.9964E+01  0.1005E+02  0.2098E+02  0.2098E+02
      0.801  0.3760E+01  0.3713E+01  0.2131E+02  0.2130E+02
      0.887  0.8702E+01  0.8725E+01  0.2206E+02  0.2206E+02
      0.973  0.1509E+02  0.1503E+02  0.2336E+02  0.2335E+02
      1.060  0.7358E+01  0.7444E+01  0.2399E+02  0.2399E+02
      1.146  0.3841E+01  0.3784E+01  0.2433E+02  0.2432E+02
      1.232  0.1472E+02  0.1472E+02  0.2560E+02  0.2559E+02
      1.318  0.5472E+01  0.5514E+01  0.2607E+02  0.2607E+02
      1.405  0.8895E+01  0.8881E+01  0.2684E+02  0.2683E+02
      1.491  0.1883E+01  0.1916E+01  0.2700E+02  0.2700E+02
      1.577  0.3572E-02  0.3730E-02  0.2700E+02  0.2700E+02
      1.664  0.2595E-07  0.2786E-07  0.2700E+02  0.2700E+02
      1.750  0.1886E-08  0.1770E-08  0.2700E+02  0.2700E+02
      1.836  0.6988E-03  0.6712E-03  0.2700E+02  0.2700E+02
      1.923  0.9287E+00  0.9118E+00  0.2708E+02  0.2708E+02
      2.009  0.8960E+01  0.8949E+01  0.2785E+02  0.2785E+02
      2.095  0.6234E+01  0.6207E+01  0.2839E+02  0.2839E+02
      2.182  0.6886E+01  0.6935E+01  0.2899E+02  0.2899E+02
      2.268  0.3510E+01  0.3461E+01  0.2929E+02  0.2928E+02
      2.354  0.1678E+02  0.1675E+02  0.3074E+02  0.3073E+02
      2.440  0.1344E+02  0.1350E+02  0.3190E+02  0.3190E+02
      2.527  0.1187E+01  0.1208E+01  0.3200E+02  0.3200E+02
      2.613  0.1147E-02  0.1191E-02  0.3200E+02  0.3200E+02
      2.699  0.7135E-02  0.6814E-02  0.3200E+02  0.3200E+02
      2.786  0.2481E+01  0.2437E+01  0.3221E+02  0.3221E+02
      2.872  0.9045E+01  0.9061E+01  0.3300E+02  0.3299E+02
      2.958  0.8990E+01  0.8978E+01  0.3377E+02  0.3377E+02
      3.045  0.3245E+01  0.3270E+01  0.3405E+02  0.3405E+02
      3.131  0.1027E+02  0.1021E+02  0.3494E+02  0.3493E+02
      3.217  0.2219E+02  0.2213E+02  0.3685E+02  0.3684E+02
      3.304  0.2247E+02  0.2255E+02  0.3879E+02  0.3879E+02
      3.390  0.1183E+02  0.1178E+02  0.3981E+02  0.3980E+02
      3.476  0.1997E+02  0.2000E+02  0.4154E+02  0.4153E+02
      3.563  0.1865E+02  0.1862E+02  0.4315E+02  0.4314E+02
      3.649  0.2043E+02  0.2041E+02  0.4491E+02  0.4490E+02
      3.735  0.2238E+02  0.2243E+02  0.4684E+02  0.4684E+02
      3.821  0.1835E+02  0.1833E+02  0.4843E+02  0.4842E+02
      3.908  0.1430E+02  0.1430E+02  0.4966E+02  0.4965E+02
      3.994  0.2079E+02  0.2076E+02  0.5145E+02  0.5144E+02
      4.080  0.2318E+02  0.2322E+02  0.5346E+02  0.5345E+02
      4.167  0.7416E+01  0.7473E+01  0.5410E+02  0.5409E+02
      4.253  0.1562E+02  0.1557E+02  0.5544E+02  0.5544E+02
      4.339  0.1041E+02  0.1044E+02  0.5634E+02  0.5634E+02
      4.426  0.7518E+01  0.7558E+01  0.5699E+02  0.5699E+02
      4.512  0.9919E+01  0.9827E+01  0.5785E+02  0.5784E+02
      4.598  0.1302E+02  0.1311E+02  0.5897E+02  0.5897E+02
      4.685  0.5197E+01  0.5145E+01  0.5942E+02  0.5941E+02
      4.771  0.2131E+02  0.2128E+02  0.6126E+02  0.6125E+02
      4.857  0.1491E+02  0.1493E+02  0.6255E+02  0.6254E+02
      4.943  0.1648E+02  0.1651E+02  0.6397E+02  0.6396E+02
      5.030  0.1685E+02  0.1681E+02  0.6542E+02  0.6541E+02
      5.116  0.1709E+02  0.1708E+02  0.6690E+02  0.6689E+02
      5.202  0.2372E+02  0.2374E+02  0.6895E+02  0.6894E+02
      5.289  0.2254E+02  0.2253E+02  0.7089E+02  0.7088E+02
      5.375  0.2602E+02  0.2600E+02  0.7314E+02  0.7313E+02
      5.461  0.1994E+02  0.2000E+02  0.7486E+02  0.7485E+02
      5.548  0.1783E+02  0.1782E+02  0.7640E+02  0.7639E+02
      5.634  0.8560E+01  0.8617E+01  0.7714E+02  0.7713E+02
      5.720  0.1492E+02  0.1487E+02  0.7842E+02  0.7842E+02
      5.807  0.1391E+02  0.1390E+02  0.7962E+02  0.7962E+02
      5.893  0.1515E+02  0.1522E+02  0.8093E+02  0.8093E+02
      5.979  0.7948E+00  0.8152E+00  0.8100E+02  0.8100E+02
      6.066  0.3534E-03  0.3720E-03  0.8100E+02  0.8100E+02
      6.152  0.6143E-09  0.6650E-09  0.8100E+02  0.8100E+02
      6.238  0.0000E+00  0.0000E+00  0.8100E+02  0.8100E+02
      6.324  0.0000E+00  0.0000E+00  0.8100E+02  0.8100E+02
      6.411  0.0000E+00  0.0000E+00  0.8100E+02  0.8100E+02
      6.497  0.0000E+00  0.0000E+00  0.8100E+02  0.8100E+02
      6.583  0.0000E+00  0.0000E+00  0.8100E+02  0.8100E+02
      6.670  0.0000E+00  0.0000E+00  0.8100E+02  0.8100E+02
      6.756  0.0000E+00  0.0000E+00  0.8100E+02  0.8100E+02
      6.842  0.2573E-14  0.2573E-14  0.8100E+02  0.8100E+02
      6.929  0.8091E-07  0.7564E-07  0.8100E+02  0.8100E+02
      7.015  0.9128E-02  0.8763E-02  0.8100E+02  0.8100E+02
      7.101  0.4211E+01  0.4141E+01  0.8136E+02  0.8136E+02
      7.188  0.2348E+02  0.2347E+02  0.8339E+02  0.8338E+02
      7.274  0.7541E+01  0.7608E+01  0.8404E+02  0.8404E+02
      7.360  0.8816E+01  0.8784E+01  0.8480E+02  0.8480E+02
      7.447  0.1065E+02  0.1062E+02  0.8572E+02  0.8572E+02
      7.533  0.2046E+02  0.2041E+02  0.8749E+02  0.8748E+02
      7.619  0.1642E+02  0.1652E+02  0.8890E+02  0.8890E+02
      7.705  0.5408E+01  0.5384E+01  0.8937E+02  0.8937E+02
      7.792  0.8559E+01  0.8575E+01  0.9011E+02  0.9011E+02
      7.878  0.1022E+02  0.1021E+02  0.9099E+02  0.9099E+02
      7.964  0.1063E+02  0.1063E+02  0.9191E+02  0.9191E+02
      8.051  0.1021E+02  0.1021E+02  0.9279E+02  0.9279E+02
      8.137  0.1131E+02  0.1126E+02  0.9377E+02  0.9376E+02
      8.223  0.1575E+02  0.1579E+02  0.9513E+02  0.9512E+02
      8.310  0.9967E+01  0.9991E+01  0.9599E+02  0.9598E+02
      8.396  0.9793E+01  0.9767E+01  0.9683E+02  0.9683E+02
      8.482  0.1529E+02  0.1525E+02  0.9815E+02  0.9814E+02
      8.569  0.1073E+02  0.1078E+02  0.9908E+02  0.9907E+02
      8.655  0.1759E+02  0.1752E+02  0.1006E+03  0.1006E+03
      8.741  0.2289E+02  0.2287E+02  0.1026E+03  0.1026E+03
      8.827  0.3358E+02  0.3359E+02  0.1055E+03  0.1055E+03
      8.914  0.1885E+02  0.1890E+02  0.1071E+03  0.1071E+03
      9.000  0.2008E+02  0.2002E+02  0.1088E+03  0.1088E+03
      9.086  0.2734E+02  0.2735E+02  0.1112E+03  0.1112E+03
      9.173  0.2321E+02  0.2322E+02  0.1132E+03  0.1132E+03
      9.259  0.2065E+02  0.2068E+02  0.1150E+03  0.1150E+03
      9.345  0.1921E+02  0.1920E+02  0.1166E+03  0.1166E+03
      9.432  0.1384E+02  0.1386E+02  0.1178E+03  0.1178E+03
      9.518  0.2046E+02  0.2035E+02  0.1196E+03  0.1196E+03
      9.604  0.2329E+02  0.2339E+02  0.1216E+03  0.1216E+03
      9.691  0.7289E+01  0.7312E+01  0.1222E+03  0.1222E+03
      9.777  0.1573E+02  0.1568E+02  0.1236E+03  0.1236E+03
      9.863  0.2106E+02  0.2103E+02  0.1254E+03  0.1254E+03
      9.950  0.2375E+02  0.2380E+02  0.1275E+03  0.1275E+03
     10.036  0.1012E+02  0.1015E+02  0.1283E+03  0.1283E+03
     10.122  0.1231E+02  0.1229E+02  0.1294E+03  0.1294E+03
     10.208  0.1948E+02  0.1942E+02  0.1311E+03  0.1311E+03
     10.295  0.1948E+02  0.1954E+02  0.1328E+03  0.1327E+03
     10.381  0.1803E+02  0.1800E+02  0.1343E+03  0.1343E+03
     10.467  0.2085E+02  0.2086E+02  0.1361E+03  0.1361E+03
     10.554  0.1700E+02  0.1698E+02  0.1376E+03  0.1376E+03
     10.640  0.2153E+02  0.2155E+02  0.1394E+03  0.1394E+03
     10.726  0.2098E+02  0.2093E+02  0.1412E+03  0.1412E+03
     10.813  0.2401E+02  0.2406E+02  0.1433E+03  0.1433E+03
     10.899  0.1060E+02  0.1063E+02  0.1442E+03  0.1442E+03
     10.985  0.1705E+02  0.1702E+02  0.1457E+03  0.1457E+03
     11.072  0.1402E+02  0.1408E+02  0.1469E+03  0.1469E+03
     11.158  0.8814E+01  0.8774E+01  0.1477E+03  0.1477E+03
     11.244  0.1566E+02  0.1565E+02  0.1490E+03  0.1490E+03
     11.330  0.1684E+02  0.1684E+02  0.1505E+03  0.1505E+03
     11.417  0.1601E+02  0.1599E+02  0.1519E+03  0.1519E+03
     11.503  0.2280E+02  0.2282E+02  0.1538E+03  0.1538E+03
     11.589  0.1923E+02  0.1918E+02  0.1555E+03  0.1555E+03
     11.676  0.2510E+02  0.2513E+02  0.1577E+03  0.1576E+03
     11.762  0.1877E+02  0.1875E+02  0.1593E+03  0.1593E+03
     11.848  0.1945E+02  0.1950E+02  0.1610E+03  0.1610E+03
     11.935  0.1648E+02  0.1645E+02  0.1624E+03  0.1624E+03
     12.021  0.1748E+02  0.1749E+02  0.1639E+03  0.1639E+03
     12.107  0.1654E+02  0.1654E+02  0.1653E+03  0.1653E+03
     12.194  0.1295E+02  0.1296E+02  0.1664E+03  0.1664E+03
     12.280  0.1643E+02  0.1645E+02  0.1679E+03  0.1678E+03
     12.366  0.1251E+02  0.1249E+02  0.1689E+03  0.1689E+03
     12.453  0.1210E+02  0.1214E+02  0.1700E+03  0.1700E+03
     12.539  0.9533E+01  0.9530E+01  0.1708E+03  0.1708E+03
     12.625  0.2378E+01  0.2418E+01  0.1710E+03  0.1710E+03
     12.711  0.5032E+01  0.4983E+01  0.1714E+03  0.1714E+03
     12.798  0.9846E+01  0.9847E+01  0.1723E+03  0.1723E+03
     12.884  0.8804E+01  0.8826E+01  0.1730E+03  0.1730E+03
     12.970  0.9418E+01  0.9406E+01  0.1739E+03  0.1739E+03
     13.057  0.9103E+01  0.9073E+01  0.1746E+03  0.1746E+03
     13.143  0.1181E+02  0.1181E+02  0.1757E+03  0.1757E+03
     13.229  0.1622E+02  0.1621E+02  0.1771E+03  0.1771E+03
     13.316  0.1031E+02  0.1038E+02  0.1780E+03  0.1780E+03
     13.402  0.5225E+00  0.5355E+00  0.1780E+03  0.1780E+03
     13.488  0.3716E+01  0.3662E+01  0.1783E+03  0.1783E+03
     13.575  0.1832E+02  0.1828E+02  0.1799E+03  0.1799E+03
     13.661  0.2747E+02  0.2745E+02  0.1823E+03  0.1823E+03
     13.747  0.1526E+02  0.1531E+02  0.1836E+03  0.1836E+03
     13.833  0.1954E+02  0.1953E+02  0.1853E+03  0.1853E+03
     13.920  0.1529E+02  0.1531E+02  0.1866E+03  0.1866E+03
     14.006  0.1522E+02  0.1520E+02  0.1879E+03  0.1879E+03
     14.092  0.1342E+02  0.1346E+02  0.1891E+03  0.1891E+03
     14.179  0.1606E+02  0.1602E+02  0.1905E+03  0.1904E+03
     14.265  0.1872E+02  0.1869E+02  0.1921E+03  0.1921E+03
     14.351  0.2712E+02  0.2711E+02  0.1944E+03  0.1944E+03
     14.438  0.1837E+02  0.1843E+02  0.1960E+03  0.1960E+03
     14.524  0.1740E+02  0.1735E+02  0.1975E+03  0.1975E+03
     14.610  0.2011E+02  0.2000E+02  0.1992E+03  0.1992E+03
     14.697  0.2774E+02  0.2772E+02  0.2016E+03  0.2016E+03
     14.783  0.2096E+02  0.2111E+02  0.2034E+03  0.2034E+03
     14.869  0.1918E+02  0.1918E+02  0.2051E+03  0.2051E+03
     14.956  0.2245E+02  0.2245E+02  0.2070E+03  0.2070E+03
     15.042  0.1743E+02  0.1745E+02  0.2085E+03  0.2085E+03
     15.128  0.1347E+02  0.1347E+02  0.2097E+03  0.2097E+03
     15.214  0.2920E+02  0.2907E+02  0.2122E+03  0.2122E+03
     15.301  0.3906E+02  0.3911E+02  0.2156E+03  0.2156E+03
     15.387  0.2880E+02  0.2885E+02  0.2181E+03  0.2181E+03
     15.473  0.2038E+02  0.2038E+02  0.2198E+03  0.2198E+03
     15.560  0.2583E+02  0.2583E+02  0.2221E+03  0.2221E+03
     15.646  0.1791E+02  0.1794E+02  0.2236E+03  0.2236E+03
     15.732  0.2176E+02  0.2174E+02  0.2255E+03  0.2255E+03
     15.819  0.2705E+02  0.2698E+02  0.2278E+03  0.2278E+03
     15.905  0.3081E+02  0.3088E+02  0.2305E+03  0.2305E+03
     15.991  0.1633E+02  0.1633E+02  0.2319E+03  0.2319E+03
     16.078  0.1802E+02  0.1802E+02  0.2334E+03  0.2334E+03
     16.164  0.2098E+02  0.2099E+02  0.2353E+03  0.2353E+03
     16.250  0.1940E+02  0.1937E+02  0.2369E+03  0.2369E+03
     16.336  0.2450E+02  0.2452E+02  0.2390E+03  0.2390E+03
     16.423  0.1636E+02  0.1637E+02  0.2405E+03  0.2405E+03
     16.509  0.1802E+02  0.1805E+02  0.2420E+03  0.2420E+03
     16.595  0.1334E+02  0.1334E+02  0.2432E+03  0.2432E+03
     16.682  0.1051E+02  0.1053E+02  0.2441E+03  0.2441E+03
     16.768  0.1165E+02  0.1162E+02  0.2451E+03  0.2451E+03
     16.854  0.1923E+02  0.1920E+02  0.2467E+03  0.2467E+03
     16.941  0.1697E+02  0.1698E+02  0.2482E+03  0.2482E+03
     17.027  0.1325E+02  0.1326E+02  0.2493E+03  0.2493E+03
     17.113  0.7380E+01  0.7441E+01  0.2500E+03  0.2500E+03
     17.200  0.1153E+01  0.1137E+01  0.2501E+03  0.2501E+03
     17.286  0.8934E+01  0.8921E+01  0.2509E+03  0.2509E+03
     17.372  0.1699E+01  0.1734E+01  0.2510E+03  0.2510E+03
     17.459  0.2873E-02  0.3008E-02  0.2510E+03  0.2510E+03
     17.545  0.3424E+00  0.3325E+00  0.2510E+03  0.2510E+03
     17.631  0.8036E+01  0.7991E+01  0.2517E+03  0.2517E+03
     17.717  0.9969E+01  0.9979E+01  0.2526E+03  0.2526E+03
     17.804  0.4847E+01  0.4888E+01  0.2530E+03  0.2530E+03
     17.890  0.5813E+01  0.5750E+01  0.2535E+03  0.2535E+03
     17.976  0.1420E+02  0.1422E+02  0.2547E+03  0.2547E+03
     18.063  0.3293E+01  0.3335E+01  0.2550E+03  0.2550E+03
     18.149  0.6801E+01  0.6753E+01  0.2556E+03  0.2556E+03
     18.235  0.7383E+01  0.7388E+01  0.2562E+03  0.2562E+03
     18.322  0.1316E+02  0.1313E+02  0.2574E+03  0.2574E+03
     18.408  0.1699E+02  0.1698E+02  0.2588E+03  0.2588E+03
     18.494  0.2143E+02  0.2143E+02  0.2607E+03  0.2607E+03
     18.581  0.1825E+02  0.1823E+02  0.2623E+03  0.2623E+03
     18.667  0.2429E+02  0.2423E+02  0.2644E+03  0.2643E+03
     18.753  0.2154E+02  0.2163E+02  0.2662E+03  0.2662E+03
     18.839  0.2165E+02  0.2160E+02  0.2681E+03  0.2681E+03
     18.926  0.2348E+02  0.2348E+02  0.2701E+03  0.2701E+03
     19.012  0.1949E+02  0.1953E+02  0.2718E+03  0.2718E+03
     19.098  0.2607E+02  0.2599E+02  0.2740E+03  0.2740E+03
     19.185  0.2752E+02  0.2757E+02  0.2764E+03  0.2764E+03
     19.271  0.2631E+02  0.2629E+02  0.2787E+03  0.2787E+03
     19.357  0.3039E+02  0.3043E+02  0.2813E+03  0.2813E+03
     19.444  0.1528E+02  0.1528E+02  0.2826E+03  0.2826E+03
     19.530  0.3188E+02  0.3185E+02  0.2854E+03  0.2854E+03
     19.616  0.2571E+02  0.2570E+02  0.2876E+03  0.2876E+03
     19.703  0.2312E+02  0.2325E+02  0.2896E+03  0.2896E+03
     19.789  0.3781E+02  0.3786E+02  0.2929E+03  0.2929E+03
     19.875  0.2111E+02  0.2371E+02  0.2947E+03  0.2949E+03
     19.962  0.1738E+02  0.1587E+02  0.2962E+03  0.2963E+03
     20.048  0.2190E+02  0.2361E+02  0.2981E+03  0.2983E+03
     20.134  0.2690E+02  0.2766E+02  0.3004E+03  0.3007E+03
     20.220  0.1926E+02  0.1727E+02  0.3021E+03  0.3022E+03
     20.307  0.1273E+02  0.1603E+02  0.3032E+03  0.3036E+03
     20.393  0.9010E+01  0.4771E+01  0.3039E+03  0.3040E+03
     20.479  0.6966E+00  0.4028E-01  0.3040E+03  0.3040E+03
     20.566  0.3752E-03  0.1587E-05  0.3040E+03  0.3040E+03
     20.652  0.7107E-09  0.1981E-12  0.3040E+03  0.3040E+03
     20.738  0.0000E+00  0.0000E+00  0.3040E+03  0.3040E+03
     20.825  0.0000E+00  0.0000E+00  0.3040E+03  0.3040E+03
     20.911  0.0000E+00  0.0000E+00  0.3040E+03  0.3040E+03
     20.997  0.0000E+00  0.0000E+00  0.3040E+03  0.3040E+03
     21.084  0.0000E+00  0.0000E+00  0.3040E+03  0.3040E+03
     21.170  0.0000E+00  0.0000E+00  0.3040E+03  0.3040E+03
     21.256  0.0000E+00  0.0000E+00  0.3040E+03  0.3040E+03
     21.342  0.0000E+00  0.0000E+00  0.3040E+03  0.3040E+03
     21.429  0.0000E+00  0.0000E+00  0.3040E+03  0.3040E+03
     21.515  0.0000E+00  0.0000E+00  0.3040E+03  0.3040E+03
