  100  100    1    2
  0.1064800E+02  0.1021149E-08  0.1021149E-08  0.1021149E-08  0.5000000E-15
  1.000000000000000E-004
  CAR 
 unknown system                          
    400      1    304
 
  0.0000000E+00  0.0000000E+00  0.0000000E+00  0.1000000E+01
    1       -3.201077     -3.200651   1.000000   1.000000
    2       -2.235595     -2.235131   1.000000   1.000000
    3       -2.050569     -2.050125   1.000000   1.000000
    4       -1.987715     -1.987296   1.000000   1.000000
    5       -1.720660     -1.720239   1.000000   1.000000
    6       -1.678205     -1.677760   1.000000   1.000000
    7       -1.461774     -1.461365   1.000000   1.000000
    8       -1.042914     -1.042435   1.000000   1.000000
    9       -0.836218     -0.835853   1.000000   1.000000
   10       -0.814412     -0.813966   1.000000   1.000000
   11       -0.687452     -0.687040   1.000000   1.000000
   12       -0.435877     -0.435530   1.000000   1.000000
   13       -0.330181     -0.329796   1.000000   1.000000
   14       -0.316686     -0.316260   1.000000   1.000000
   15       -0.204460     -0.204052   1.000000   1.000000
   16       -0.167010     -0.166592   1.000000   1.000000
   17       -0.037868     -0.037463   1.000000   1.000000
   18       -0.008021     -0.007614   1.000000   1.000000
   19        0.201523      0.201983   1.000000   1.000000
   20        0.602707      0.603147   1.000000   1.000000
   21        0.640688      0.641040   1.000000   1.000000
   22        0.818467      0.818934   1.000000   1.000000
   23        0.937556      0.937947   1.000000   1.000000
   24        0.971758      0.972208   1.000000   1.000000
   25        1.163393      1.163875   1.000000   1.000000
   26        1.221065      1.221485   1.000000   1.000000
   27        1.370013      1.370429   1.000000   1.000000
   28        1.972254      1.972603   1.000000   1.000000
   29        2.104949      2.105389   1.000000   1.000000
   30        2.289634      2.290081   1.000000   1.000000
   31        2.340701      2.341129   1.000000   1.000000
   32        2.395222      2.395558   1.000000   1.000000
   33        2.813673      2.814137   1.000000   1.000000
   34        2.932084      2.932477   1.000000   1.000000
   35        3.102166      3.102565   1.000000   1.000000
   36        3.171762      3.172174   1.000000   1.000000
   37        3.203577      3.203995   1.000000   1.000000
   38        3.242985      3.243369   1.000000   1.000000
   39        3.270053      3.270468   1.000000   1.000000
   40        3.389037      3.389470   1.000000   1.000000
   41        3.409013      3.409396   1.000000   1.000000
   42        3.473176      3.473600   1.000000   1.000000
   43        3.540314      3.540742   1.000000   1.000000
   44        3.571465      3.571844   1.000000   1.000000
   45        3.638302      3.638735   1.000000   1.000000
   46        3.671813      3.672241   1.000000   1.000000
   47        3.706984      3.707359   1.000000   1.000000
   48        3.784068      3.784458   1.000000   1.000000
   49        3.815980      3.816440   1.000000   1.000000
   50        3.903943      3.904374   1.000000   1.000000
   51        3.949558      3.950013   1.000000   1.000000
   52        4.005496      4.005944   1.000000   1.000000
   53        4.026257      4.026667   1.000000   1.000000
   54        4.077257      4.077733   1.000000   1.000000
   55        4.214391      4.214792   1.000000   1.000000
   56        4.245987      4.246391   1.000000   1.000000
   57        4.353309      4.353712   1.000000   1.000000
   58        4.508527      4.508951   1.000000   1.000000
   59        4.529636      4.530051   1.000000   1.000000
   60        4.698044      4.698418   1.000000   1.000000
   61        4.738830      4.739228   1.000000   1.000000
   62        4.774800      4.775250   1.000000   1.000000
   63        4.862061      4.862483   1.000000   1.000000
   64        4.900475      4.900834   1.000000   1.000000
   65        4.993425      4.993840   1.000000   1.000000
   66        5.024121      5.024578   1.000000   1.000000
   67        5.114515      5.114937   1.000000   1.000000
   68        5.130727      5.131096   1.000000   1.000000
   69        5.176202      5.176594   1.000000   1.000000
   70        5.237317      5.237762   1.000000   1.000000
   71        5.264338      5.264696   1.000000   1.000000
   72        5.323242      5.323699   1.000000   1.000000
   73        5.350010      5.350487   1.000000   1.000000
   74        5.384226      5.384607   1.000000   1.000000
   75        5.432936      5.433415   1.000000   1.000000
   76        5.512846      5.513265   1.000000   1.000000
   77        5.542413      5.542830   1.000000   1.000000
   78        5.673400      5.673776   1.000000   1.000000
   79        5.719365      5.719824   1.000000   1.000000
   80        5.812181      5.812613   1.000000   1.000000
   81        5.837167      5.837591   1.000000   1.000000
   82        7.131214      7.131618   1.000000   1.000000
   83        7.136818      7.137210   1.000000   1.000000
   84        7.185619      7.186004   1.000000   1.000000
   85        7.332673      7.333091   1.000000   1.000000
   86        7.432157      7.432602   1.000000   1.000000
   87        7.503491      7.503897   1.000000   1.000000
   88        7.527392      7.527825   1.000000   1.000000
   89        7.572308      7.572706   1.000000   1.000000
   90        7.717029      7.717424   1.000000   1.000000
   91        7.831981      7.832395   1.000000   1.000000
   92        7.925742      7.926180   1.000000   1.000000
   93        8.023484      8.023933   1.000000   1.000000
   94        8.131048      8.131462   1.000000   1.000000
   95        8.166692      8.167135   1.000000   1.000000
   96        8.254959      8.255348   1.000000   1.000000
   97        8.368666      8.369066   1.000000   1.000000
   98        8.454314      8.454750   1.000000   1.000000
   99        8.494296      8.494658   1.000000   1.000000
  100        8.619254      8.619658   1.000000   1.000000
  101        8.641603      8.642004   1.000000   1.000000
  102        8.700229      8.700649   1.000000   1.000000
  103        8.742865      8.743276   1.000000   1.000000
  104        8.782662      8.783073   1.000000   1.000000
  105        8.791906      8.792339   1.000000   1.000000
  106        8.813150      8.813550   1.000000   1.000000
  107        8.877199      8.877605   1.000000   1.000000
  108        8.938761      8.939193   1.000000   1.000000
  109        8.998326      8.998718   1.000000   1.000000
  110        9.022394      9.022825   1.000000   1.000000
  111        9.048521      9.048959   1.000000   1.000000
  112        9.105551      9.106033   1.000000   1.000000
  113        9.136963      9.137392   1.000000   1.000000
  114        9.190449      9.190853   1.000000   1.000000
  115        9.225375      9.225787   1.000000   1.000000
  116        9.295744      9.296142   1.000000   1.000000
  117        9.330529      9.330959   1.000000   1.000000
  118        9.403394      9.403834   1.000000   1.000000
  119        9.501767      9.502244   1.000000   1.000000
  120        9.507994      9.508437   1.000000   1.000000
  121        9.537831      9.538266   1.000000   1.000000
  122        9.591918      9.592353   1.000000   1.000000
  123        9.717497      9.717889   1.000000   1.000000
  124        9.772187      9.772642   1.000000   1.000000
  125        9.826832      9.827301   1.000000   1.000000
  126        9.873359      9.873767   1.000000   1.000000
  127        9.897333      9.897753   1.000000   1.000000
  128        9.945901      9.946295   1.000000   1.000000
  129       10.051120     10.051530   1.000000   1.000000
  130       10.131546     10.131963   1.000000   1.000000
  131       10.199466     10.199906   1.000000   1.000000
  132       10.211664     10.212107   1.000000   1.000000
  133       10.278015     10.278396   1.000000   1.000000
  134       10.343681     10.344078   1.000000   1.000000
  135       10.392300     10.392673   1.000000   1.000000
  136       10.430362     10.430766   1.000000   1.000000
  137       10.489071     10.489495   1.000000   1.000000
  138       10.558344     10.558766   1.000000   1.000000
  139       10.589300     10.589743   1.000000   1.000000
  140       10.639991     10.640382   1.000000   1.000000
  141       10.717914     10.718256   1.000000   1.000000
  142       10.724255     10.724692   1.000000   1.000000
  143       10.765492     10.765894   1.000000   1.000000
  144       10.819699     10.820154   1.000000   1.000000
  145       10.924912     10.925379   1.000000   1.000000
  146       10.974208     10.974592   1.000000   1.000000
  147       11.025283     11.025721   1.000000   1.000000
  148       11.147641     11.148073   1.000000   1.000000
  149       11.211667     11.212076   1.000000   1.000000
  150       11.273544     11.273967   1.000000   1.000000
  151       11.328481     11.328916   1.000000   1.000000
  152       11.408853     11.409240   1.000000   1.000000
  153       11.442123     11.442519   1.000000   1.000000
  154       11.476606     11.477046   1.000000   1.000000
  155       11.548261     11.548687   1.000000   1.000000
  156       11.595920     11.596367   1.000000   1.000000
  157       11.623269     11.623711   1.000000   1.000000
  158       11.662966     11.663415   1.000000   1.000000
  159       11.721657     11.722095   1.000000   1.000000
  160       11.780067     11.780603   1.000000   1.000000
  161       11.806874     11.807277   1.000000   1.000000
  162       11.893897     11.894321   1.000000   1.000000
  163       11.938145     11.938591   1.000000   1.000000
  164       11.995115     11.995552   1.000000   1.000000
  165       12.061400     12.061873   1.000000   1.000000
  166       12.115288     12.115714   1.000000   1.000000
  167       12.204102     12.204507   1.000000   1.000000
  168       12.247445     12.247900   1.000000   1.000000
  169       12.339125     12.339557   1.000000   1.000000
  170       12.402269     12.402736   1.000000   1.000000
  171       12.509202     12.509647   1.000000   1.000000
  172       12.717058     12.717446   1.000000   1.000000
  173       12.816356     12.816760   1.000000   1.000000
  174       12.934760     12.935162   1.000000   1.000000
  175       13.044682     13.045208   1.000000   1.000000
  176       13.134400     13.134797   1.000000   1.000000
  177       13.194604     13.195025   1.000000   1.000000
  178       13.255083     13.255524   1.000000   1.000000
  179       13.507900     13.508319   1.000000   1.000000
  180       13.553346     13.553680   1.000000   1.000000
  181       13.610750     13.611186   1.000000   1.000000
  182       13.635990     13.636406   1.000000   1.000000
  183       13.653163     13.653557   1.000000   1.000000
  184       13.745726     13.746101   1.000000   1.000000
  185       13.797960     13.798328   1.000000   1.000000
  186       13.839775     13.840141   1.000000   1.000000
  187       13.912599     13.912952   1.000000   1.000000
  188       13.987116     13.987527   1.000000   1.000000
  189       14.034467     14.034877   1.000000   1.000000
  190       14.135346     14.135746   1.000000   1.000000
  191       14.175433     14.175811   1.000000   1.000000
  192       14.247155     14.247569   1.000000   1.000000
  193       14.280563     14.280945   1.000000   1.000000
  194       14.326736     14.327131   1.000000   1.000000
  195       14.343923     14.344266   1.000000   1.000000
  196       14.397451     14.397853   1.000000   1.000000
  197       14.478564     14.478987   0.999998   0.999998
  198       14.525390     14.525811   0.999541   0.999521
  199       14.566579     14.566985   0.984210   0.983750
  200       14.632660     14.633986   0.610508   0.596042
  201       14.663641     14.664686   0.275703   0.265917
  202       14.681052     14.681724   0.138275   0.134121
  203       14.730797     14.731224   0.006296   0.006085
  204       14.788913     14.789336   0.000017   0.000017
  205       14.832891     14.833297   0.000000   0.000000
  206       14.905445     14.905870   0.000000   0.000000
  207       14.913647     14.914080   0.000000   0.000000
  208       14.983171     14.983625   0.000000   0.000000
  209       15.035812     15.036248   0.000000   0.000000
  210       15.116322     15.116749   0.000000   0.000000
  211       15.188744     15.189134   0.000000   0.000000
  212       15.198648     15.199060   0.000000   0.000000
  213       15.217291     15.217669   0.000000   0.000000
  214       15.240919     15.241394   0.000000   0.000000
  215       15.263654     15.264096   0.000000   0.000000
  216       15.307202     15.307602   0.000000   0.000000
  217       15.316441     15.316866   0.000000   0.000000
  218       15.364210     15.364643   0.000000   0.000000
  219       15.400061     15.400514   0.000000   0.000000
  220       15.465009     15.465462   0.000000   0.000000
  221       15.499444     15.499866   0.000000   0.000000
  222       15.540731     15.541125   0.000000   0.000000
  223       15.568449     15.568857   0.000000   0.000000
  224       15.647095     15.647490   0.000000   0.000000
  225       15.685663     15.686038   0.000000   0.000000
  226       15.731308     15.731697   0.000000   0.000000
  227       15.788066     15.788495   0.000000   0.000000
  228       15.804889     15.805311   0.000000   0.000000
  229       15.837611     15.838053   0.000000   0.000000
  230       15.877410     15.877803   0.000000   0.000000
  231       15.885678     15.886044   0.000000   0.000000
  232       15.974487     15.974933   0.000000   0.000000
  233       16.019973     16.020423   0.000000   0.000000
  234       16.086816     16.087239   0.000000   0.000000
  235       16.122691     16.123132   0.000000   0.000000
  236       16.175044     16.175440   0.000000   0.000000
  237       16.238077     16.238485   0.000000   0.000000
  238       16.272636     16.273070   0.000000   0.000000
  239       16.307875     16.308294   0.000000   0.000000
  240       16.355939     16.356366   0.000000   0.000000
  241       16.433528     16.433959   0.000000   0.000000
  242       16.466563     16.466970   0.000000   0.000000
  243       16.546616     16.547054   0.000000   0.000000
  244       16.619330     16.619735   0.000000   0.000000
  245       16.724828     16.725299   0.000000   0.000000
  246       16.803127     16.803536   0.000000   0.000000
  247       16.835117     16.835539   0.000000   0.000000
  248       16.899015     16.899423   0.000000   0.000000
  249       16.957148     16.957565   0.000000   0.000000
  250       17.038714     17.039195   0.000000   0.000000
  251       17.248781     17.249245   0.000000   0.000000
  252       17.611560     17.612014   0.000000   0.000000
  253       17.709868     17.710215   0.000000   0.000000
  254       17.892919     17.893349   0.000000   0.000000
  255       17.953842     17.954253   0.000000   0.000000
  256       18.140102     18.140517   0.000000   0.000000
  257       18.260547     18.260998   0.000000   0.000000
  258       18.331394     18.331857   0.000000   0.000000
  259       18.391615     18.392057   0.000000   0.000000
  260       18.445257     18.445627   0.000000   0.000000
  261       18.473550     18.474070   0.000000   0.000000
  262       18.553069     18.553460   0.000000   0.000000
  263       18.584883     18.585315   0.000000   0.000000
  264       18.647817     18.648263   0.000000   0.000000
  265       18.679762     18.680226   0.000000   0.000000
  266       18.684590     18.685019   0.000000   0.000000
  267       18.780023     18.780469   0.000000   0.000000
  268       18.814951     18.815391   0.000000   0.000000
  269       18.853037     18.853508   0.000000   0.000000
  270       18.909631     18.910096   0.000000   0.000000
  271       18.931569     18.932010   0.000000   0.000000
  272       18.995391     18.995844   0.000000   0.000000
  273       19.055192     19.055619   0.000000   0.000000
  274       19.092820     19.093256   0.000000   0.000000
  275       19.099996     19.100437   0.000000   0.000000
  276       19.141299     19.141756   0.000000   0.000000
  277       19.197310     19.197743   0.000000   0.000000
  278       19.217058     19.217462   0.000000   0.000000
  279       19.281481     19.281905   0.000000   0.000000
  280       19.285995     19.286449   0.000000   0.000000
  281       19.331379     19.331840   0.000000   0.000000
  282       19.349790     19.350168   0.000000   0.000000
  283       19.463263     19.463632   0.000000   0.000000
  284       19.464602     19.465041   0.000000   0.000000
  285       19.496750     19.497201   0.000000   0.000000
  286       19.527459     19.527886   0.000000   0.000000
  287       19.579185     19.579776   0.000000   0.000000
  288       19.607463     19.607999   0.000000   0.000000
  289       19.651377     19.651877   0.000000   0.000000
  290       19.719539     19.719189   0.000000   0.000000
  291       19.732138     19.732237   0.000000   0.000000
  292       19.744941     19.745470   0.000000   0.000000
  293       19.761833     19.761750   0.000000   0.000000
  294       19.810768     19.811419   0.000000   0.000000
  295       19.879619     19.865987   0.000000   0.000000
  296       19.896568     19.889018   0.000000   0.000000
  297       19.991502     19.987806   0.000000   0.000000
  298       20.026768     20.011722   0.000000   0.000000
  299       20.069634     20.064062   0.000000   0.000000
  300       20.086836     20.082967   0.000000   0.000000
  301       20.135376     20.110734   0.000000   0.000000
  302       20.196462     20.189416   0.000000   0.000000
  303       20.236996     20.231496   0.000000   0.000000
  304       20.338155     20.297646   0.000000   0.000000
