       N       E                     dE             d eps       ncg     rms          rms(c)
RMM:   1     0.141820741280E+04    0.14182E+04   -0.75095E+04   608   0.515E+02
RMM:   2     0.306992859952E+02   -0.13875E+04   -0.13370E+04   608   0.121E+02
RMM:   3    -0.258574049840E+03   -0.28927E+03   -0.28363E+03   608   0.503E+01
RMM:   4    -0.339868420914E+03   -0.81294E+02   -0.68245E+02   608   0.287E+01
RMM:   5    -0.366570838444E+03   -0.26702E+02   -0.21769E+02   608   0.132E+01
RMM:   6    -0.376670735277E+03   -0.10100E+02   -0.77711E+01   608   0.789E+00
RMM:   7    -0.380384863413E+03   -0.37141E+01   -0.30718E+01   608   0.405E+00
RMM:   8    -0.381912636903E+03   -0.15278E+01   -0.12502E+01   608   0.251E+00
RMM:   9    -0.382835033460E+03   -0.92240E+00   -0.84846E+00  1517   0.137E+00
RMM:  10    -0.382941773449E+03   -0.10674E+00   -0.47518E-01  1487   0.262E-01
RMM:  11    -0.382943732385E+03   -0.19589E-02   -0.13500E-02  1381   0.475E-02
RMM:  12    -0.382943750084E+03   -0.17698E-04   -0.17420E-04  1117   0.682E-03    0.650E+01
RMM:  13    -0.385404578356E+03   -0.24608E+01   -0.20921E+01  1326   0.438E+00    0.392E+01
RMM:  14    -0.392346206572E+03   -0.69416E+01   -0.75424E+00  1324   0.304E+00    0.184E+01
RMM:  15    -0.393061047731E+03   -0.71484E+00   -0.16223E+00  1391   0.131E+00    0.382E+00
RMM:  16    -0.393195649881E+03   -0.13460E+00   -0.44489E-01  1398   0.696E-01    0.242E+00
RMM:  17    -0.393268562335E+03   -0.72912E-01   -0.11613E-01  1419   0.342E-01    0.146E+00
RMM:  18    -0.393313413727E+03   -0.44851E-01   -0.38184E-02  1403   0.211E-01    0.750E-01
RMM:  19    -0.393325020867E+03   -0.11607E-01   -0.12579E-02  1430   0.119E-01    0.316E-01
RMM:  20    -0.393327762699E+03   -0.27418E-02   -0.34898E-03  1433   0.680E-02    0.166E-01
RMM:  21    -0.393328869604E+03   -0.11069E-02   -0.15275E-03  1414   0.456E-02    0.110E-01
RMM:  22    -0.393329547630E+03   -0.67803E-03   -0.10202E-03  1399   0.382E-02    0.710E-02
RMM:  23    -0.393329972513E+03   -0.42488E-03   -0.89865E-04  1387   0.365E-02    0.455E-02
RMM:  24    -0.393330184115E+03   -0.21160E-03   -0.64277E-04  1395   0.307E-02    0.263E-02
RMM:  25    -0.393330252590E+03   -0.68475E-04   -0.26600E-04  1414   0.193E-02    0.142E-02
RMM:  26    -0.393330273981E+03   -0.21391E-04   -0.10959E-04  1423   0.123E-02    0.698E-03
RMM:  27    -0.393330279142E+03   -0.51604E-05   -0.31855E-05  1108   0.663E-03
   1 F= -.39333028E+03 E0= -.39329513E+03  d E =-.703055E-01  mag=     0.0150
