 vasp.5.4.4.18Apr17-6-g9f103f2a35 (build Sep 16 2020 16:20:45) complex          
  
 executed on             LinuxIFC date 2021.08.09  15:41:14
 running on   16 total cores
 distrk:  each k-point on   16 cores,    1 groups
 distr:  one band on NCORES_PER_BAND=   1 cores,   16 groups


--------------------------------------------------------------------------------------------------------


 INCAR:
 POTCAR:    PAW_PBE Si 05Jan2001                  

 ----------------------------------------------------------------------------- 
|                                                                             |
|           W    W    AA    RRRRR   N    N  II  N    N   GGGG   !!!           |
|           W    W   A  A   R    R  NN   N  II  NN   N  G    G  !!!           |
|           W    W  A    A  R    R  N N  N  II  N N  N  G       !!!           |
|           W WW W  AAAAAA  RRRRR   N  N N  II  N  N N  G  GGG   !            |
|           WW  WW  A    A  R   R   N   NN  II  N   NN  G    G                |
|           W    W  A    A  R    R  N    N  II  N    N   GGGG   !!!           |
|                                                                             |
|      For optimal performance we recommend to set                            |
|        NCORE= 4 - approx SQRT( number of cores)                             |
|      NCORE specifies how many cores store one orbital (NPAR=cpu/NCORE).     |
|      This setting can  greatly improve the performance of VASP for DFT.     |
|      The default,   NCORE=1            might be grossly inefficient         |
|      on modern multi-core architectures or massively parallel machines.     |
|      Do your own testing !!!!                                               |
|      Unfortunately you need to use the default for GW and RPA calculations. |
|      (for HF NCORE is supported but not extensively tested yet)             |
|                                                                             |
 ----------------------------------------------------------------------------- 

 POTCAR:    PAW_PBE Si 05Jan2001                  
   SHA256 =  79d9987ad8750f624c4d6acb2a16d13abf6a777132adc04dc6c8399be72b42bb Si
   COPYR  = (c) Copyright 05Jan2001 Georg Kresse                                
   COPYR  = This file is part of the software VASP. Any use, copying, and all ot
   COPYR  = If you do not have a valid VASP license, you may not use, copy or di
   VRHFIN =Si: s2p2                                                             
   LEXCH  = PE                                                                  
   EATOM  =   103.0669 eV,    7.5752 Ry                                         
                                                                                
   TITEL  = PAW_PBE Si 05Jan2001                                                
   LULTRA =        F    use ultrasoft PP ?                                      
   IUNSCR =        1    unscreen: 0-lin 1-nonlin 2-no                           
   RPACOR =    1.500    partial core radius                                     
   POMASS =   28.085; ZVAL   =    4.000    mass and valenz                      
   RCORE  =    1.900    outmost cutoff radius                                   
   RWIGS  =    2.480; RWIGS  =    1.312    wigner-seitz radius (au A)           
   ENMAX  =  245.345; ENMIN  =  184.009 eV                                      
   ICORE  =        2    local potential                                         
   LCOR   =        T    correct aug charges                                     
   LPAW   =        T    paw PP                                                  
   EAUG   =  322.069                                                            
   DEXC   =    0.000                                                            
   RMAX   =    1.950    core radius for proj-oper                               
   RAUG   =    1.300    factor for augmentation sphere                          
   RDEP   =    1.993    radius for radial grids                                 
   RDEPT  =    1.837    core radius for aug-charge                              
                                                                                
   Atomic configuration                                                         
    6 entries                                                                   
     n  l   j            E        occ.                                          
     1  0  0.50     -1785.8828   2.0000                                         
     2  0  0.50      -139.4969   2.0000                                         
     2  1  1.50       -95.5546   6.0000                                         
     3  0  0.50       -10.8127   2.0000                                         
     3  1  0.50        -4.0811   2.0000                                         
     3  2  1.50        -4.0817   0.0000                                         
   Description                                                                  
     l       E           TYP  RCUT    TYP  RCUT                                 
     0    -10.8127223     23  1.900                                             
     0     -7.6451159     23  1.900                                             
     1     -4.0811372     23  1.900                                             
     1      2.4879257     23  1.900                                             
     2     -4.0817478      7  1.900                                             
  local pseudopotential read in
  partial core-charges read in
  partial kinetic energy density read in
  atomic valenz-charges read in
  non local Contribution for L=           0  read in
    real space projection operators read in
  non local Contribution for L=           0  read in
    real space projection operators read in
  non local Contribution for L=           1  read in
    real space projection operators read in
  non local Contribution for L=           1  read in
    real space projection operators read in
    PAW grid and wavefunctions read in
 
   number of l-projection  operators is LMAX  =           4
   number of lm-projection operators is LMMAX =           8
 
 Optimization of the real space projectors (new method)

 maximal supplied QI-value         = 19.84
 optimisation between [QCUT,QGAM] = [  7.94, 15.87] = [ 17.64, 70.56] Ry 
 Optimized for a Real-space Cutoff    1.57 Angstroem

   l    n(q)    QCUT    max X(q) W(low)/X(q) W(high)/X(q)  e(spline) 
   0      7     7.937   159.560    0.16E-03    0.38E-03    0.13E-06
   0      7     7.937   115.863    0.15E-03    0.37E-03    0.13E-06
   1      7     7.937    88.339    0.42E-03    0.67E-03    0.13E-06
   1      7     7.937    48.592    0.41E-03    0.65E-03    0.13E-06
  PAW_PBE Si 05Jan2001                  :
 energy of atom  1       EATOM= -103.0669
 kinetic energy error for atom=    0.0056 (will be added to EATOM!!)
 
 
 POSCAR: Si                                      
  positions in cartesian coordinates
  No initial velocities read in
 exchange correlation table for  LEXCH =        8
   RHO(1)=    0.500       N(1)  =     2000
   RHO(2)=  100.500       N(2)  =     4000
 


--------------------------------------------------------------------------------------------------------


 ion  position               nearest neighbor table
   1  0.859  0.404  0.353-  30 2.11  70 2.22   9 2.32  36 2.36  35 2.38  94 2.46  73 2.54  91 2.55
                            96 2.78  57 2.91  68 2.92  58 3.10
   2  0.452  0.084  0.357-  92 2.05  87 2.23  14 2.40  57 2.45  25 2.51  90 2.52  93 2.57  84 2.66
                            64 2.67  60 2.74  53 3.02  55 3.08
   3  0.889  0.793  0.807-  15 2.18  13 2.24  75 2.30  78 2.30  61 2.55  27 2.60  69 2.72  40 2.72
                            95 2.73   7 2.86  48 3.05  50 3.12  39 3.13
   4  0.983  0.075  0.609-  68 1.94  22 2.22  72 2.37  50 2.40  15 2.43  53 2.43  85 2.56  47 2.59
                            28 2.60  48 2.77  37 3.08
   5  0.632  0.968  0.611-  92 1.91  45 2.15  72 2.19  15 2.22  46 2.38  48 2.45  56 2.46  61 2.61
                             7 2.73  25 2.77  84 2.79  47 2.94  42 2.96  87 3.12
   6  0.293  0.819  0.744-  50 2.26  10 2.26  69 2.30  46 2.36  27 2.47  84 2.48  62 2.54  82 2.65
                            65 2.67  45 2.75  29 2.81  22 2.93
   7  0.689  0.708  0.631-  45 2.11  36 2.29  13 2.29  15 2.38  42 2.41  74 2.42  65 2.47  63 2.60
                            40 2.61  61 2.70   5 2.73   3 2.86  58 2.98
   8  0.552  0.629  0.025-  59 2.03  33 2.11  40 2.26  51 2.29  38 2.48  65 2.53  62 2.55  66 2.58
                            21 2.62  79 2.77  75 2.91  94 3.10
   9  0.861  0.603  0.243-  38 2.12  58 2.26   1 2.32  19 2.36  33 2.39  39 2.45  18 2.48  35 2.56
                            94 2.59  36 2.69  42 2.91  91 3.13
  10  0.331  0.682  0.574-  82 2.09  45 2.18  76 2.25   6 2.26  63 2.29  52 2.34  12 2.45  69 2.57
                            17 2.75  65 2.81  98 2.86  87 2.95  84 3.12
  11  0.101  0.225  0.195-  85 2.16  23 2.19  35 2.19  88 2.40  60 2.41  14 2.41  96 2.46  54 2.64
                            31 2.66  34 2.83
  12  0.303  0.689  0.335-  17 2.18  18 2.23  44 2.28  98 2.33  77 2.35  87 2.42  51 2.42  10 2.45
                            52 2.49  32 2.51  66 2.57  76 2.96
  13  0.905  0.645  0.645-  58 2.14  69 2.23   3 2.24   7 2.29  73 2.38  81 2.45  15 2.61  36 2.67
                            52 2.69  78 2.72  74 2.75  40 3.06  22 3.12
  14  0.239  0.046  0.264-  93 2.19  53 2.30  17 2.36   2 2.40  11 2.41  77 2.44  34 2.51 100 2.56
                            60 2.66  85 2.69  55 3.06  87 3.09
  15  0.835  0.890  0.625-  47 1.99   3 2.18   5 2.22   7 2.38   4 2.43  48 2.47  22 2.56  72 2.60
                            13 2.61  42 2.86  58 2.88  61 2.92
  16  0.151  0.588  0.929-  32 2.18  27 2.31  78 2.31  41 2.36  59 2.42  82 2.46  39 2.50  67 2.56
                            79 2.61  69 2.66  23 2.87
  17  0.224  0.871  0.414- 100 2.10  22 2.15  12 2.18  53 2.28  87 2.34  14 2.36  52 2.50  84 2.50
                            77 2.55  10 2.75  18 2.79
  18  0.091  0.670  0.285-  32 2.13  52 2.13  12 2.23  39 2.31  44 2.42  77 2.42  58 2.45   9 2.48
                           100 2.52  35 2.63  17 2.79  19 2.87
  19  0.872  0.833  0.218-  31 2.16 100 2.19  39 2.31   9 2.36  75 2.46  47 2.47  97 2.58  42 2.64
                            58 2.73  33 2.77  18 2.87  25 2.88  80 3.06  34 3.14
  20  0.580  0.329  0.574-  74 2.27  92 2.27  63 2.30  56 2.30  71 2.30  90 2.30  43 2.40  30 2.44
                            57 2.52  86 2.75  72 2.87  36 3.01
  21  0.584  0.405  0.904-  99 2.30  26 2.32  71 2.33  89 2.34  79 2.36  40 2.46  74 2.60   8 2.62
                            38 2.90  86 2.91  56 2.99  49 3.03  91 3.10  65 3.11
  22  0.078  0.884  0.565-  17 2.15   4 2.22  50 2.24  69 2.36  52 2.40  53 2.43 100 2.45  15 2.56
                            47 2.64  58 2.91   6 2.93  84 3.08  13 3.12
  23  0.216  0.350  0.065-  79 2.10  11 2.19  54 2.22  60 2.32  67 2.35  41 2.42  35 2.45  32 2.48
                            55 2.59  66 2.73  16 2.87  44 2.97
  24  0.568  0.022  0.967-  89 2.12  97 2.21  64 2.24  61 2.24  62 2.26  46 2.32  80 2.34  93 2.51
                            55 2.64  49 2.65  56 2.83  48 2.87  29 2.88  75 3.05
  25  0.680  0.994  0.345-  47 2.14  42 2.32  97 2.36  64 2.46  70 2.47   2 2.51  72 2.55  92 2.64
                            87 2.70  57 2.76   5 2.77  19 2.88  31 3.06
  26  0.548  0.334  0.118-  55 1.94  64 2.26  94 2.31  91 2.31  21 2.32  66 2.49  57 2.50  89 2.54
                            79 2.75  60 2.82  43 3.04
  27  0.120  0.811  0.913-  50 2.28  16 2.31  39 2.34  34 2.36   6 2.47  69 2.52   3 2.60  29 2.64
                            95 2.81  77 2.83  78 2.97  59 2.99
  28  0.001  0.225  0.813-  54 2.18  81 2.28  41 2.32  95 2.34  88 2.39  86 2.41  67 2.57   4 2.60
                            68 2.64  83 2.72  99 2.86  48 2.87  50 2.97  37 3.14
  29  0.287  0.005  0.947-  54 2.18  93 2.25  49 2.30  34 2.30  62 2.37  50 2.51  46 2.56  27 2.64
                            55 2.76   6 2.81  24 2.88  77 2.97  37 3.08
  30  0.816  0.343  0.546-  68 2.03   1 2.11  86 2.19  72 2.33  74 2.34  20 2.44  36 2.48  73 2.51
                            81 2.54  70 2.72  57 3.06
  31  0.924  0.034  0.177-  80 2.08  19 2.16  34 2.18 100 2.35  85 2.41  70 2.48  88 2.52  95 2.65
                            11 2.66  47 2.91  25 3.06  97 3.14
  32  0.208  0.583  0.135-  66 2.09  18 2.13  59 2.18  16 2.18  44 2.22  35 2.44  23 2.48  12 2.51
                            77 2.52  39 2.52  79 2.78
  33  0.646  0.684  0.200-  51 1.91   8 2.11  94 2.27  98 2.31  42 2.37  97 2.39   9 2.39  38 2.40
                            75 2.74  19 2.77  66 3.13
  34  0.101  0.977  0.072-  31 2.18  77 2.22  95 2.25  29 2.30  27 2.36  54 2.46  14 2.51 100 2.79
                            11 2.83  39 2.93  93 3.08  19 3.14
  35  0.039  0.430  0.207-  11 2.19  44 2.32   1 2.38  96 2.43  32 2.44  23 2.45   9 2.56  41 2.62
                            18 2.63  88 2.88  91 2.99  39 3.15
  36  0.732  0.558  0.469-  58 2.28   7 2.29  42 2.34   1 2.36  94 2.41  74 2.42  30 2.48  98 2.49
                            63 2.54  13 2.67   9 2.69  20 3.01  73 3.10
  37  0.267  0.147  0.682-  90 2.12  84 2.16  83 2.17  49 2.24  53 2.34  50 2.39  67 2.77  71 2.80
                            46 2.83  54 2.96  29 3.08   4 3.08  28 3.14
  38  0.775  0.541  0.065-   9 2.12  91 2.23  99 2.24  40 2.26  78 2.31  33 2.40   8 2.48  94 2.55
                            75 2.81  39 2.89  21 2.90  41 3.04
  39  0.002  0.708  0.080-  78 2.26  18 2.31  19 2.31  27 2.34   9 2.45  16 2.50  32 2.52  75 2.68
                            77 2.74  38 2.89  34 2.93   3 3.13  35 3.15
  40  0.705  0.610  0.866-  74 2.25   8 2.26  38 2.26  99 2.28  65 2.29  78 2.30  21 2.46  75 2.54
                             7 2.61  61 2.64   3 2.72  13 3.06
  41  0.014  0.404  0.953-  88 2.10  78 2.19  99 2.20  28 2.32  16 2.36  81 2.37  67 2.37  23 2.42
                            35 2.62  54 2.76  38 3.04  91 3.12
  42  0.704  0.776  0.406-  47 2.29  58 2.31  25 2.32  36 2.34  33 2.37   7 2.41  98 2.53  19 2.64
                            45 2.72  87 2.75  15 2.86   9 2.91   5 2.96  97 3.15
  43  0.457  0.410  0.391-  98 2.21  76 2.25  60 2.28  57 2.31  63 2.32  94 2.38  20 2.40  90 2.40
                            66 2.46  44 2.55  26 3.04
  44  0.226  0.480  0.326-  96 2.07  76 2.16  60 2.21  32 2.22  12 2.28  66 2.28  35 2.32  18 2.42
                            43 2.55  52 2.76  73 2.95  23 2.97
  45  0.510  0.799  0.586-   7 2.11   5 2.15  10 2.18  87 2.23  65 2.41  84 2.44  63 2.63  46 2.64
                            42 2.72   6 2.75  98 2.85  61 3.06
  46  0.464  0.972  0.771-  62 2.18  84 2.21  24 2.32  61 2.35  56 2.35   6 2.36   5 2.38  49 2.40
                            29 2.56  45 2.64  37 2.83  92 2.96  65 3.07
  47  0.859  0.935  0.437-  15 1.99  25 2.14 100 2.17  42 2.29  72 2.37  19 2.47  58 2.55   4 2.59
                            22 2.64  85 2.71  70 2.89  31 2.91   5 2.94
  48  0.773  0.066  0.779-  86 2.13  56 2.32  95 2.35  89 2.43   5 2.45  15 2.47  72 2.49  61 2.51
                            80 2.53   4 2.77  28 2.87  24 2.87   3 3.05
  49  0.396  0.181  0.856-  71 2.19  37 2.24  56 2.24  29 2.30  55 2.31  46 2.40  54 2.59  24 2.65
                            67 2.66  79 2.93  89 3.01  21 3.03
  50  0.133  0.971  0.758-  22 2.24   6 2.26  27 2.28  37 2.39   4 2.40  29 2.51  95 2.54  54 2.87
                            69 2.89  84 2.95  28 2.97  53 3.10   3 3.12
  51  0.476  0.761  0.190-  33 1.91   8 2.29  87 2.30  97 2.37  59 2.38  93 2.40  98 2.42  12 2.42
                            77 2.66  66 2.68  62 2.72
  52  0.118  0.664  0.492-  69 2.10  18 2.13  73 2.16  58 2.20  10 2.34  22 2.40  12 2.49  17 2.50
                            13 2.69  76 2.70  44 2.76 100 3.09
  53  0.183  0.080  0.479-  85 2.13  17 2.28  14 2.30  84 2.31  37 2.34   4 2.43  22 2.43  90 2.62
                            68 2.75 100 2.75  96 2.76   2 3.02  83 3.04  50 3.10
  54  0.159  0.176  0.949-  29 2.18  28 2.18  23 2.22  67 2.29  34 2.46  49 2.59  88 2.60  95 2.62
                            11 2.64  41 2.76  50 2.87  37 2.96  55 2.98
  55  0.419  0.200  0.080-  26 1.94  64 2.25  49 2.31  60 2.33  93 2.37  23 2.59  24 2.64  29 2.76
                            79 2.87  89 2.93  54 2.98  14 3.06   2 3.08
  56  0.576  0.169  0.732-  92 2.14  49 2.24  20 2.30  48 2.32  86 2.34  46 2.35  71 2.43   5 2.46
                            89 2.47  72 2.79  24 2.83  90 2.97  21 2.99
  57  0.616  0.257  0.340-  70 2.16  43 2.31  64 2.33  94 2.34   2 2.45  26 2.50  20 2.52  92 2.55
                            25 2.76  91 2.80   1 2.91  72 2.92  30 3.06  90 3.14
  58  0.910  0.690  0.441-  13 2.14  52 2.20   9 2.26  36 2.28  42 2.31  18 2.45  47 2.55  73 2.58
                            19 2.73 100 2.82  15 2.88  22 2.91   7 2.98   1 3.10
  59  0.358  0.670  0.011-   8 2.03  62 2.09  32 2.18  79 2.35  51 2.38  66 2.41  16 2.42  77 2.64
                            65 2.75  27 2.99
  60  0.316  0.294  0.261-  44 2.21  43 2.28  23 2.32  55 2.33  11 2.41  66 2.49  96 2.58  14 2.66
                             2 2.74  26 2.82  90 2.89
  61  0.652  0.862  0.843-  75 2.10  24 2.24  62 2.30  46 2.35  65 2.48  48 2.51   3 2.55   5 2.61
                            40 2.64   7 2.70  15 2.92  80 3.00  97 3.00  45 3.06
  62  0.449  0.838  0.936-  59 2.09  46 2.18  24 2.26  61 2.30  65 2.34  29 2.37  93 2.53   6 2.54
                             8 2.55  51 2.72  97 2.94
  63  0.506  0.542  0.569-  98 2.14  10 2.29  20 2.30  76 2.32  43 2.32  74 2.40  36 2.54  65 2.60
                             7 2.60  45 2.63  71 2.68  82 2.80
  64  0.612  0.125  0.155-  24 2.24  55 2.25  97 2.26  26 2.26  89 2.31  57 2.33  80 2.37  25 2.46
                             2 2.67  93 2.69  91 2.70  70 2.82
  65  0.507  0.675  0.786-  40 2.29  62 2.34  45 2.41   7 2.47  61 2.48   8 2.53  82 2.60  63 2.60
                             6 2.67  59 2.75  10 2.81  74 2.98  46 3.07  21 3.11
  66  0.394  0.511  0.182-  32 2.09  44 2.28  79 2.40  59 2.41  43 2.46  60 2.49  26 2.49  98 2.56
                            12 2.57   8 2.58  51 2.68  23 2.73  94 2.74  33 3.13
  67  0.211  0.363  0.835-  83 2.08  79 2.17  54 2.29  23 2.35  41 2.37  82 2.40  71 2.46  16 2.56
                            28 2.57  49 2.66  37 2.77  81 2.84
  68  0.995  0.257  0.557-   4 1.94  30 2.03  96 2.09  83 2.13  85 2.28  73 2.31  81 2.49  28 2.64
                            72 2.72  53 2.75   1 2.92  86 2.93  70 3.05
  69  0.111  0.696  0.695-  52 2.10  13 2.23  82 2.30   6 2.30  22 2.36  27 2.52  10 2.57  16 2.66
                             3 2.72  50 2.89  73 2.94  78 3.05  81 3.14
  70  0.817  0.192  0.327-  85 2.15  57 2.16   1 2.22  72 2.37  25 2.47  31 2.48  91 2.51  30 2.72
                            64 2.82  47 2.89  68 3.05
  71  0.432  0.358  0.741-  49 2.19  20 2.30  21 2.33  56 2.43  67 2.46  79 2.50  90 2.51  82 2.55
                            63 2.68  37 2.80  76 2.85  83 2.87  74 3.03
  72  0.766  0.121  0.542-   5 2.19  92 2.26  30 2.33   4 2.37  70 2.37  47 2.37  48 2.49  25 2.55
                            86 2.59  15 2.60  68 2.72  56 2.79  20 2.87  57 2.92  85 3.11
  73  0.020  0.480  0.528-  96 2.16  52 2.16  81 2.19  68 2.31  13 2.38  83 2.44  30 2.51   1 2.54
                            58 2.58  76 2.81  69 2.94  44 2.95  36 3.10
  74  0.698  0.478  0.689-  40 2.25  20 2.27  86 2.33  30 2.34  63 2.40  36 2.42   7 2.42  99 2.43
                            21 2.60  13 2.75  81 2.78  65 2.98  71 3.03
  75  0.773  0.808  1.000-  61 2.10  97 2.13   3 2.30  80 2.46  19 2.46  40 2.54  39 2.68  33 2.74
                            38 2.81  78 2.85   8 2.91  95 3.01  24 3.05
  76  0.294  0.471  0.526-  44 2.16  83 2.21  10 2.25  43 2.25  82 2.29  63 2.32  90 2.50  96 2.58
                            52 2.70  73 2.81  71 2.85  12 2.96  98 3.13
  77  0.226  0.827  0.168-  34 2.22  93 2.33  12 2.35  18 2.42  14 2.44  32 2.52  17 2.55 100 2.63
                            59 2.64  51 2.66  39 2.74  27 2.83  29 2.97
  78  0.926  0.594  0.906-  41 2.19  99 2.20  39 2.26  40 2.30   3 2.30  38 2.31  16 2.31  81 2.51
                            13 2.72  75 2.85  27 2.97  69 3.05
  79  0.363  0.446  0.958-  23 2.10  67 2.17  59 2.35  21 2.36  66 2.40  71 2.50  16 2.61  82 2.70
                            26 2.75   8 2.77  32 2.78  55 2.87  49 2.93
  80  0.788  0.046  0.026-  95 2.01  31 2.08  89 2.09  97 2.30  24 2.34  64 2.37  88 2.41  75 2.46
                            48 2.53  61 3.00  19 3.06  91 3.11
  81  0.963  0.428  0.728-  73 2.19  28 2.28  99 2.29  41 2.37  13 2.45  86 2.46  68 2.49  78 2.51
                            83 2.52  30 2.54  74 2.78  67 2.84  69 3.14
  82  0.286  0.560  0.732-  10 2.09  76 2.29  69 2.30  67 2.40  16 2.46  71 2.55  65 2.60   6 2.65
                            79 2.70  83 2.78  63 2.80
  83  0.172  0.332  0.638-  67 2.08  68 2.13  37 2.17  76 2.21  96 2.39  73 2.44  81 2.52  90 2.54
                            28 2.72  82 2.78  71 2.87  53 3.04
  84  0.361  0.986  0.581-  37 2.16  46 2.21  53 2.31  92 2.34  45 2.44   6 2.48  17 2.50  87 2.50
                            90 2.65   2 2.66   5 2.79  50 2.95  22 3.08  10 3.12
  85  0.016  0.138  0.369-  53 2.13  70 2.15  11 2.16  96 2.28  68 2.28 100 2.41  31 2.41   4 2.56
                            14 2.69  47 2.71  72 3.11
  86  0.780  0.272  0.745-  99 2.08  48 2.13  30 2.19  74 2.33  56 2.34  28 2.41  81 2.46  89 2.47
                            72 2.59  20 2.75  21 2.91  68 2.93
  87  0.451  0.867  0.386-   2 2.23  45 2.23  51 2.30  17 2.34  12 2.42  84 2.50  98 2.64  25 2.70
                            42 2.75  93 2.84  10 2.95  92 3.08  14 3.09   5 3.12
  88  0.928  0.236  0.036-  91 2.08  41 2.10  28 2.39  11 2.40  80 2.41  95 2.45  31 2.52  54 2.60
                            99 2.65  89 2.76  35 2.88
  89  0.674  0.199  0.951-  80 2.09  24 2.12  64 2.31  21 2.34  48 2.43  56 2.47  86 2.47  91 2.49
                            26 2.54  99 2.66  88 2.76  55 2.93  49 3.01
  90  0.377  0.240  0.532-  37 2.12  92 2.16  20 2.30  43 2.40  76 2.50  71 2.51   2 2.52  83 2.54
                            53 2.62  84 2.65  60 2.89  56 2.97  96 3.09  57 3.14
  91  0.775  0.332  0.129-  88 2.08  38 2.23  26 2.31  94 2.40  89 2.49  70 2.51   1 2.55  99 2.61
                            64 2.70  57 2.80  35 2.99  21 3.10  80 3.11  41 3.12   9 3.13
  92  0.546  0.113  0.532-   5 1.91   2 2.05  56 2.14  90 2.16  72 2.26  20 2.27  84 2.34  57 2.55
                            25 2.64  46 2.96  87 3.08
  93  0.397  0.975  0.136-  14 2.19  29 2.25  77 2.33  55 2.37  51 2.40  24 2.51  62 2.53   2 2.57
                            97 2.65  64 2.69  87 2.84  34 3.08
  94  0.645  0.472  0.267-  98 2.26  33 2.27  26 2.31  57 2.34  43 2.38  91 2.40  36 2.41   1 2.46
                            38 2.55   9 2.59  66 2.74   8 3.10
  95  0.952  0.028  0.919-  80 2.01  34 2.25  28 2.34  48 2.35  88 2.45  50 2.54  54 2.62  31 2.65
                             3 2.73  27 2.81  75 3.01
  96  0.116  0.333  0.411-  44 2.07  68 2.09  73 2.16  85 2.28  83 2.39  35 2.43  11 2.46  60 2.58
                            76 2.58  53 2.76   1 2.78  90 3.09
  97  0.647  0.908  0.133-  75 2.13  24 2.21  64 2.26  80 2.30  25 2.36  51 2.37  33 2.39  19 2.58
                            93 2.65  62 2.94  61 3.00  31 3.14  42 3.15
  98  0.516  0.617  0.374-  63 2.14  43 2.21  94 2.26  33 2.31  12 2.33  51 2.42  36 2.49  42 2.53
                            66 2.56  87 2.64  45 2.85  10 2.86  76 3.13
  99  0.809  0.414  0.889-  86 2.08  41 2.20  78 2.20  38 2.24  40 2.28  81 2.29  21 2.30  74 2.43
                            91 2.61  88 2.65  89 2.66  28 2.86
 100  0.041  0.907  0.329-  17 2.10  47 2.17  19 2.19  31 2.35  85 2.41  22 2.45  18 2.52  14 2.56
                            77 2.63  53 2.75  34 2.79  58 2.82  52 3.09
 

IMPORTANT INFORMATION: All symmetrisations will be switched off!
NOSYMM: (Re-)initialisation of all symmetry stuff for point group C_1.

 
 
 KPOINTS: simple                                  

Automatic generation of k-mesh.
Space group operators:
 irot       det(A)        alpha          n_x          n_y          n_z        tau_x        tau_y        tau_z
    1     1.000000     0.000000     1.000000     0.000000     0.000000     0.000000     0.000000     0.000000
 
 Subroutine IBZKPT returns following result:
 ===========================================
 
 Found      1 irreducible k-points:
 
 Following reciprocal coordinates:
            Coordinates               Weight
  0.000000  0.000000  0.000000      1.000000
 
 Following cartesian coordinates:
            Coordinates               Weight
  0.000000  0.000000  0.000000      1.000000
 


--------------------------------------------------------------------------------------------------------




 Dimension of arrays:
   k-points           NKPTS =      1   k-points in BZ     NKDIM =      1   number of bands    NBANDS=    304
   number of dos      NEDOS =    301   number of ions     NIONS =    100
   non local maximal  LDIM  =      4   non local SUM 2l+1 LMDIM =      8
   total plane-waves  NPLWV =  64000
   max r-space proj   IRMAX =   1017   max aug-charges    IRDMAX=   2209
   dimension x,y,z NGX =    40 NGY =   40 NGZ =   40
   dimension x,y,z NGXF=    80 NGYF=   80 NGZF=   80
   support grid    NGXF=    80 NGYF=   80 NGZF=   80
   ions per type =             100
   NGX,Y,Z   is equivalent  to a cutoff of   6.51,  6.51,  6.51 a.u.
   NGXF,Y,Z  is equivalent  to a cutoff of  13.02, 13.02, 13.02 a.u.

 SYSTEM =  unknown system                          
 POSCAR =  Si                                      

 Startparameter for this run:
   NWRITE =      2    write-flag & timer
   PREC   = normal    normal or accurate (medium, high low for compatibility)
   ISTART =      0    job   : 0-new  1-cont  2-samecut
   ICHARG =      2    charge: 1-file 2-atom 10-const
   ISPIN  =      2    spin polarized calculation?
   LNONCOLLINEAR =      F non collinear calculations
   LSORBIT =      F    spin-orbit coupling
   INIWAV =      1    electr: 0-lowe 1-rand  2-diag
   LASPH  =      F    aspherical Exc in radial PAW
   METAGGA=      F    non-selfconsistent MetaGGA calc.

 Electronic Relaxation 1
   ENCUT  =  245.3 eV  18.03 Ry    4.25 a.u.  13.04 13.04 13.04*2*pi/ulx,y,z
   ENINI  =  245.3     initial cutoff
   ENAUG  =  322.1 eV  augmentation charge cutoff
   NELM   =     60;   NELMIN=  4; NELMDL=-12     # of ELM steps 
   EDIFF  = 0.1E-04   stopping-criterion for ELM
   LREAL  =      T    real-space projection
   NLSPLINE    = F    spline interpolate recip. space projectors
   LCOMPAT=      F    compatible to vasp.4.4
   GGA_COMPAT  = T    GGA compatible to vasp.4.4-vasp.4.6
   LMAXPAW     = -100 max onsite density
   LMAXMIX     =    2 max onsite mixed and CHGCAR
   VOSKOWN=      0    Vosko Wilk Nusair interpolation
   ROPT   =   -0.00050
 Ionic relaxation
   EDIFFG = 0.1E-03   stopping-criterion for IOM
   NSW    =      0    number of steps for IOM
   NBLOCK =      1;   KBLOCK =      1    inner block; outer block 
   IBRION =     -1    ionic relax: 0-MD 1-quasi-New 2-CG
   NFREE  =      0    steps in history (QN), initial steepest desc. (CG)
   ISIF   =      2    stress and relaxation
   IWAVPR =     10    prediction:  0-non 1-charg 2-wave 3-comb
   ISYM   =      0    0-nonsym 1-usesym 2-fastsym
   LCORR  =      T    Harris-Foulkes like correction to forces

   POTIM  = 0.5000    time-step for ionic-motion
   TEIN   =    0.0    initial temperature
   TEBEG  =    0.0;   TEEND  =   0.0 temperature during run
   SMASS  =  -3.00    Nose mass-parameter (am)
   estimated Nose-frequenzy (Omega)   =  0.10E-29 period in steps =****** mass=  -0.238E-26a.u.
   SCALEE = 1.0000    scale energy and forces
   NPACO  =    256;   APACO  = 16.0  distance and # of slots for P.C.
   PSTRESS=    0.0 pullay stress

  Mass of Ions in am
   POMASS =  28.09
  Ionic Valenz
   ZVAL   =   4.00
  Atomic Wigner-Seitz radii
   RWIGS  =  -1.00
  virtual crystal weights 
   VCA    =   1.00
   NELECT =     400.0000    total number of electrons
   NUPDOWN=      -1.0000    fix difference up-down

 DOS related values:
   EMIN   =  10.00;   EMAX   =-10.00  energy-range for DOS
   EFERMI =   0.00
   ISMEAR =     0;   SIGMA  =   0.05  broadening in eV -4-tet -1-fermi 0-gaus

 Electronic relaxation 2 (details)
   IALGO  =     48    algorithm
   LDIAG  =      T    sub-space diagonalisation (order eigenvalues)
   LSUBROT=      F    optimize rotation matrix (better conditioning)
   TURBO    =      0    0=normal 1=particle mesh
   IRESTART =      0    0=no restart 2=restart with 2 vectors
   NREBOOT  =      0    no. of reboots
   NMIN     =      0    reboot dimension
   EREF     =   0.00    reference energy to select bands
   IMIX   =      4    mixing-type and parameters
     AMIX     =   0.40;   BMIX     =  1.00
     AMIX_MAG =   1.60;   BMIX_MAG =  1.00
     AMIN     =   0.10
     WC   =   100.;   INIMIX=   1;  MIXPRE=   1;  MAXMIX= -45

 Intra band minimization:
   WEIMIN = 0.0000     energy-eigenvalue tresh-hold
   EBREAK =  0.82E-08  absolut break condition
   DEPER  =   0.30     relativ break condition  

   TIME   =   0.40     timestep for ELM

  volume/ion in A,a.u.               =      10.65        71.86
  Fermi-wavevector in a.u.,A,eV,Ry     =   1.181242  2.232223 18.984649  1.395332
  Thomas-Fermi vector in A             =   2.317519
 
 Write flags
   LWAVE        =      F    write WAVECAR
   LDOWNSAMPLE  =      F    k-point downsampling of WAVECAR
   LCHARG       =      F    write CHGCAR
   LVTOT        =      F    write LOCPOT, total local potential
   LVHAR        =      F    write LOCPOT, Hartree potential only
   LELF         =      F    write electronic localiz. function (ELF)
   LORBIT       =      0    0 simple, 1 ext, 2 COOP (PROOUT), +10 PAW based schemes


 Dipole corrections
   LMONO  =      F    monopole corrections only (constant potential shift)
   LDIPOL =      F    correct potential (dipole corrections)
   IDIPOL =      0    1-x, 2-y, 3-z, 4-all directions 
   EPSILON=  1.0000000 bulk dielectric constant

 Exchange correlation treatment:
   GGA     =    --    GGA type
   LEXCH   =     8    internal setting for exchange type
   VOSKOWN=      0    Vosko Wilk Nusair interpolation
   LHFCALC =     F    Hartree Fock is set to
   LHFONE  =     F    Hartree Fock one center treatment
   AEXX    =    0.0000 exact exchange contribution

 Linear response parameters
   LEPSILON=     F    determine dielectric tensor
   LRPA    =     F    only Hartree local field effects (RPA)
   LNABLA  =     F    use nabla operator in PAW spheres
   LVEL    =     F    velocity operator in full k-point grid
   LINTERFAST=   F  fast interpolation
   KINTER  =     0    interpolate to denser k-point grid
   CSHIFT  =0.1000    complex shift for real part using Kramers Kronig
   OMEGAMAX=  -1.0    maximum frequency
   DEG_THRESHOLD= 0.2000000E-02 threshold for treating states as degnerate
   RTIME   =   -0.100 relaxation time in fs
  (WPLASMAI=    0.000 imaginary part of plasma frequency in eV, 0.658/RTIME)
   DFIELD  = 0.0000000 0.0000000 0.0000000 field for delta impulse in time
 
 Orbital magnetization related:
   ORBITALMAG=     F  switch on orbital magnetization
   LCHIMAG   =     F  perturbation theory with respect to B field
   DQ        =  0.001000  dq finite difference perturbation B field
   LLRAUG    =     F  two centre corrections for induced B field



--------------------------------------------------------------------------------------------------------


 Static calculation
 charge density and potential will be updated during run
 spin polarized calculation
 RMM-DIIS sequential band-by-band
 perform sub-space diagonalisation
    before iterative eigenvector-optimisation
 modified Broyden-mixing scheme, WC =      100.0
 initial mixing is a Kerker type mixing with AMIX =  0.4000 and BMIX =      1.0000
 Hartree-type preconditioning will be used
 using additional bands          104
 real space projection scheme for non local part
 use partial core corrections
 calculate Harris-corrections to forces 
   (improved forces if not selfconsistent)
 use gradient corrections 
 use of overlap-Matrix (Vanderbilt PP)
 Gauss-broadening in eV      SIGMA  =   0.05


--------------------------------------------------------------------------------------------------------


  energy-cutoff  :      245.34
  volume of cell :     1064.80
      direct lattice vectors                 reciprocal lattice vectors
    10.211495000  0.000000000  0.000000000     0.097928854  0.000000000  0.000000000
     0.000000000 10.211495000  0.000000000     0.000000000  0.097928854  0.000000000
     0.000000000  0.000000000 10.211495000     0.000000000  0.000000000  0.097928854

  length of vectors
    10.211495000 10.211495000 10.211495000     0.097928854  0.097928854  0.097928854


 
 k-points in units of 2pi/SCALE and weight: simple                                  
   0.00000000  0.00000000  0.00000000       1.000
 
 k-points in reciprocal lattice and weights: simple                                  
   0.00000000  0.00000000  0.00000000       1.000
 
 position of ions in fractional coordinates (direct lattice) 
   0.85939500  0.40404700  0.35324200
   0.45164800  0.08359360  0.35712500
   0.88938900  0.79312200  0.80742500
   0.98328500  0.07462830  0.60860900
   0.63231200  0.96814800  0.61095200
   0.29282000  0.81913500  0.74355800
   0.68941100  0.70760000  0.63060200
   0.55241800  0.62910400  0.02464250
   0.86139700  0.60316300  0.24331800
   0.33116000  0.68204500  0.57366100
   0.10098700  0.22480400  0.19532700
   0.30313800  0.68909400  0.33500700
   0.90452100  0.64534900  0.64543200
   0.23944100  0.04591200  0.26397800
   0.83450600  0.89019400  0.62498800
   0.15134600  0.58779600  0.92899300
   0.22394400  0.87059400  0.41427700
   0.09121780  0.67002900  0.28464600
   0.87248800  0.83280100  0.21814000
   0.57996600  0.32921300  0.57369400
   0.58363200  0.40489100  0.90428400
   0.07809260  0.88402600  0.56522500
   0.21555500  0.35046500  0.06543610
   0.56810400  0.02202710  0.96660100
   0.67972600  0.99393900  0.34535100
   0.54845700  0.33419900  0.11754800
   0.12005900  0.81087000  0.91305400
   0.00128000  0.22532300  0.81348400
   0.28716500  0.00496000  0.94707900
   0.81640700  0.34343800  0.54603200
   0.92425900  0.03382240  0.17733000
   0.20774400  0.58321200  0.13529100
   0.64598300  0.68396600  0.20046900
   0.10145100  0.97701700  0.07207950
   0.03890480  0.43006600  0.20726500
   0.73242700  0.55811400  0.46886400
   0.26728700  0.14678900  0.68151900
   0.77463000  0.54078400  0.06495080
   0.00185580  0.70823500  0.08014630
   0.70506800  0.60978400  0.86607200
   0.01389880  0.40377600  0.95282900
   0.70413800  0.77602800  0.40558000
   0.45722100  0.40991000  0.39055900
   0.22643400  0.47998300  0.32616700
   0.50979300  0.79906600  0.58559400
   0.46352500  0.97219400  0.77134000
   0.85920400  0.93526900  0.43671400
   0.77272500  0.06610930  0.77910300
   0.39555700  0.18070100  0.85635300
   0.13305300  0.97149900  0.75821000
   0.47630100  0.76083200  0.18971800
   0.11808200  0.66409000  0.49185600
   0.18277500  0.08025360  0.47931900
   0.15938800  0.17600900  0.94874600
   0.41896200  0.19967600  0.08034070
   0.57585100  0.16891000  0.73168900
   0.61606100  0.25684900  0.34030300
   0.91017200  0.69037400  0.44069800
   0.35800800  0.67021300  0.01109940
   0.31643500  0.29448600  0.26106700
   0.65175400  0.86151100  0.84254500
   0.44888600  0.83821700  0.93643700
   0.50575100  0.54161100  0.56923200
   0.61202700  0.12499000  0.15473000
   0.50656300  0.67522100  0.78604200
   0.39368400  0.51146800  0.18201200
   0.21051400  0.36308700  0.83545000
   0.99526300  0.25683800  0.55696600
   0.11066200  0.69603400  0.69518000
   0.81723000  0.19210000  0.32661400
   0.43176100  0.35754400  0.74084800
   0.76629900  0.12070900  0.54173700
   0.01974790  0.47979700  0.52791900
   0.69822800  0.47807500  0.68911400
   0.77317100  0.80782800  0.99958100
   0.29442200  0.47056600  0.52585400
   0.22561500  0.82731100  0.16840900
   0.92628300  0.59368700  0.90621100
   0.36252600  0.44639100  0.95841100
   0.78800300  0.04645030  0.02609340
   0.96290400  0.42808400  0.72774000
   0.28616600  0.56013300  0.73176100
   0.17168100  0.33188200  0.63799200
   0.36127400  0.98588900  0.58113300
   0.01614630  0.13809500  0.36864000
   0.77988200  0.27207900  0.74525900
   0.45091900  0.86707800  0.38630700
   0.92821400  0.23584600  0.03588960
   0.67447500  0.19926700  0.95078300
   0.37684900  0.24028000  0.53223900
   0.77453100  0.33221800  0.12936600
   0.54563200  0.11349800  0.53166100
   0.39656400  0.97524700  0.13633900
   0.64541300  0.47247500  0.26737900
   0.95167200  0.02792180  0.91914400
   0.11622600  0.33277100  0.41056200
   0.64693500  0.90758400  0.13301700
   0.51623700  0.61711900  0.37377600
   0.80865900  0.41362000  0.88937600
   0.04077520  0.90695200  0.32927300
 
 position of ions in cartesian coordinates  (Angst):
   8.77570775  4.12592392  3.60712892
   4.61200129  0.85361563  3.64678015
   9.08199133  8.09896134  8.24501635
  10.04080986  0.76206651  6.21480776
   6.45685083  9.88623846  6.23873329
   2.99012997  8.36459296  7.59283880
   7.03991698  7.22565386  6.43938917
   5.64101364  6.42409235  0.25163677
   8.79615116  6.15919596  2.48464054
   3.38163868  6.96469911  5.85793643
   1.03122825  2.29558492  1.99458068
   3.09549217  7.03667994  3.42092231
   9.23651167  6.58997809  6.59082564
   2.44505057  0.46883016  2.69561003
   8.52155385  9.09021158  6.38206184
   1.54546892  6.00227592  9.48640737
   2.28680304  8.89006628  4.23038751
   0.93147011  6.84199778  2.90666121
   8.90940685  8.50414325  2.22753552
   5.92231991  3.36175690  5.85827341
   5.95975525  4.13454242  9.23409154
   0.79744219  9.02722708  5.77179226
   2.20113880  3.57877160  0.66820041
   5.80119116  0.22492962  9.87044128
   6.94101865 10.14960313  3.52655001
   5.60056591  3.41267142  1.20034081
   1.22598188  8.28019495  9.32364636
   0.01307071  2.30088469  8.30688780
   2.93238396  0.05064902  9.67109247
   8.33673600  3.50701542  5.57580304
   9.43806616  0.34537727  1.81080441
   2.12137682  5.95546642  1.38152337
   6.59645217  6.98431539  2.04708819
   1.03596638  9.97680421  0.73603945
   0.39727617  4.39161681  2.11648551
   7.47917465  5.69917832  4.78780239
   2.72939986  1.49893514  6.95932786
   7.91013037  5.52221311  0.66324477
   0.01895049  7.23213816  0.81841354
   7.19979836  6.22680627  8.84388990
   0.14192753  4.12315661  9.72980857
   7.19030167  7.92440604  4.14157814
   4.66890996  4.18579392  3.98819128
   2.31222966  4.90134400  3.33065269
   5.20574867  8.15965846  5.97979020
   4.73328322  9.92755417  7.87653455
   8.77375735  9.55049472  4.45950283
   7.89067747  0.67507479  7.95580639
   4.03922833  1.84522736  8.74464438
   1.35867004  9.92045718  7.74245762
   4.86374528  7.76923216  1.93730441
   1.20579375  6.78135171  5.02258508
   1.86640600  0.81950924  4.89456357
   1.62758977  1.79731502  9.68811504
   4.27822837  2.03899048  0.82039866
   5.88029961  1.72482362  7.47163857
   6.29090382  2.62281228  3.47500238
   9.29421683  7.04975065  4.50018542
   3.65579690  6.84387670  0.11334147
   3.23127442  3.00714232  2.66588437
   6.65538271  8.79731527  8.60364405
   4.58379714  8.55944870  9.56242174
   5.16447381  5.53065802  5.81270972
   6.24971065  1.27633476  1.58002462
   5.17276554  6.89501587  8.02666395
   4.02010220  5.22285292  1.85861463
   2.14966266  3.70766109  8.53119350
  10.16312315  2.62269995  5.68745552
   1.13002446  7.10754771  7.09882709
   8.34514006  1.96162819  3.33521723
   4.40892529  3.65105877  7.56516565
   7.82505841  1.23261935  5.53194467
   0.20165558  4.89944467  5.39084223
   7.12995173  4.88186047  7.03688417
   7.89523180  8.24913158 10.20721638
   3.00648878  4.80518236  5.36975549
   2.30386644  8.44808214  1.71970766
   9.45873422  6.06243183  9.25376910
   3.70193244  4.55831946  9.78680913
   8.04668869  0.47432701  0.26645262
   9.83268938  4.37137763  7.43131337
   2.92218268  5.71979533  7.47237379
   1.75311967  3.38901138  6.51485212
   3.68914764 10.06740059  5.93423672
   0.16487786  1.41015640  3.76436552
   7.96376114  2.77833335  7.61020855
   4.60455711  8.85416266  3.94477200
   9.47845262  2.40834025  0.36648647
   6.88739809  2.03481397  9.70891585
   3.84819168  2.45361802  5.43495589
   7.90911943  3.39244245  1.32102026
   5.57171844  1.15898426  5.42905364
   4.04951130  9.95872986  1.39222502
   6.59063162  4.82467610  2.73033932
   9.71799387  0.28512332  9.38583436
   1.18684122  3.39808940  4.19245181
   6.60617352  9.26778948  1.35830243
   5.27155154  6.30170758  3.81681176
   8.25761734  4.22367856  9.08185858
   0.41637575  9.26133581  3.36236959
 


--------------------------------------------------------------------------------------------------------


 k-point  1 :   0.0000 0.0000 0.0000  plane waves:    9315

 maximum and minimum number of plane-waves per node :      9315     9315

 maximum number of plane-waves:      9315
 maximum index in each direction: 
   IXMAX=   13   IYMAX=   13   IZMAX=   13
   IXMIN=  -13   IYMIN=  -13   IZMIN=  -13


 serial   3D FFT for wavefunctions
 parallel 3D FFT for charge:
    minimum data exchange during FFTs selected (reduces bandwidth)


 total amount of memory used by VASP MPI-rank0    53954. kBytes
=======================================================================

   base      :      30000. kBytes
   nonlr-proj:       8286. kBytes
   fftplans  :       1377. kBytes
   grid      :       7520. kBytes
   one-center:        614. kBytes
   wavefun   :       6157. kBytes
 
     INWAV:  cpu time    0.0000: real time    0.0001
 Broyden mixing: mesh for mixing (old mesh)
   NGX = 27   NGY = 27   NGZ = 27
  (NGX  = 80   NGY  = 80   NGZ  = 80)
  gives a total of  19683 points

 initial charge density was supplied:
 charge density of overlapping atoms calculated
 number of electron     400.0000000 magnetization     100.0000000
 keeping initial charge density in first step


--------------------------------------------------------------------------------------------------------


 Maximum index for non-local projection operator          952
 Maximum index for augmentation-charges          191 (set IRDMAX)


--------------------------------------------------------------------------------------------------------


 First call to EWALD:  gamma=   0.174
 Maximum number of real-space cells 3x 3x 3
 Maximum number of reciprocal cells 3x 3x 3

    FEWALD:  cpu time    0.0076: real time    0.0076


--------------------------------------- Iteration      1(   1)  ---------------------------------------


    POTLOK:  cpu time    0.0551: real time    0.1036
    SETDIJ:  cpu time    0.0345: real time    0.0346
    EDDIAG:  cpu time    0.3433: real time    0.3452
  RMM-DIIS:  cpu time    0.4269: real time    0.4319
    ORTHCH:  cpu time    0.0976: real time    0.0982
       DOS:  cpu time    0.0004: real time    0.0004
    --------------------------------------------
      LOOP:  cpu time    0.9578: real time    1.0139

 eigenvalue-minimisations  :   608
 total energy-change (2. order) : 0.1418207E+04  (-0.7509472E+04)
 number of electron     400.0000000 magnetization     100.0000000
 augmentation part      400.0000000 magnetization     100.0000000

 Free energy of the ion-electron system (eV)
  ---------------------------------------------------
  alpha Z        PSCENC =       316.14514549
  Ewald energy   TEWEN  =    -14807.97940352
  -Hartree energ DENC   =      -139.37646286
  -exchange      EXHF   =         0.00000000
  -V(xc)+E(xc)   XCENC  =      -776.27861819
  PAW double counting   =      8803.41707833    -7043.47671478
  entropy T*S    EENTRO =        -0.01926140
  eigenvalues    EBANDS =      4759.64703413
  atomic energy  EATOM  =     10306.12861560
  Solvation  Ediel_sol  =         0.00000000
  ---------------------------------------------------
  free energy    TOTEN  =      1418.20741280 eV

  energy without entropy =     1418.22667420  energy(sigma->0) =     1418.21704350


--------------------------------------------------------------------------------------------------------




--------------------------------------- Iteration      1(   2)  ---------------------------------------


    EDDIAG:  cpu time    0.3403: real time    0.3423
  RMM-DIIS:  cpu time    0.4365: real time    0.4415
    ORTHCH:  cpu time    0.0971: real time    0.0977
       DOS:  cpu time    0.0003: real time    0.0003
    --------------------------------------------
      LOOP:  cpu time    0.8742: real time    0.8818

 eigenvalue-minimisations  :   608
 total energy-change (2. order) :-0.1387508E+04  (-0.1336978E+04)
 number of electron     400.0000000 magnetization     100.0000000
 augmentation part      400.0000000 magnetization     100.0000000

 Free energy of the ion-electron system (eV)
  ---------------------------------------------------
  alpha Z        PSCENC =       316.14514549
  Ewald energy   TEWEN  =    -14807.97940352
  -Hartree energ DENC   =      -139.37646286
  -exchange      EXHF   =         0.00000000
  -V(xc)+E(xc)   XCENC  =      -776.27861819
  PAW double counting   =      8803.41707833    -7043.47671478
  entropy T*S    EENTRO =        -0.01481558
  eigenvalues    EBANDS =      3372.13446150
  atomic energy  EATOM  =     10306.12861560
  Solvation  Ediel_sol  =         0.00000000
  ---------------------------------------------------
  free energy    TOTEN  =        30.69928600 eV

  energy without entropy =       30.71410157  energy(sigma->0) =       30.70669378


--------------------------------------------------------------------------------------------------------




--------------------------------------- Iteration      1(   3)  ---------------------------------------


    EDDIAG:  cpu time    0.3361: real time    0.3380
  RMM-DIIS:  cpu time    0.4389: real time    0.4438
    ORTHCH:  cpu time    0.0970: real time    0.0976
       DOS:  cpu time    0.0003: real time    0.0003
    --------------------------------------------
      LOOP:  cpu time    0.8722: real time    0.8797

 eigenvalue-minimisations  :   608
 total energy-change (2. order) :-0.2892733E+03  (-0.2836263E+03)
 number of electron     400.0000000 magnetization     100.0000000
 augmentation part      400.0000000 magnetization     100.0000000

 Free energy of the ion-electron system (eV)
  ---------------------------------------------------
  alpha Z        PSCENC =       316.14514549
  Ewald energy   TEWEN  =    -14807.97940352
  -Hartree energ DENC   =      -139.37646286
  -exchange      EXHF   =         0.00000000
  -V(xc)+E(xc)   XCENC  =      -776.27861819
  PAW double counting   =      8803.41707833    -7043.47671478
  entropy T*S    EENTRO =        -0.03922307
  eigenvalues    EBANDS =      3082.88553316
  atomic energy  EATOM  =     10306.12861560
  Solvation  Ediel_sol  =         0.00000000
  ---------------------------------------------------
  free energy    TOTEN  =      -258.57404984 eV

  energy without entropy =     -258.53482677  energy(sigma->0) =     -258.55443830


--------------------------------------------------------------------------------------------------------




--------------------------------------- Iteration      1(   4)  ---------------------------------------


    EDDIAG:  cpu time    0.3365: real time    0.3384
  RMM-DIIS:  cpu time    0.4346: real time    0.4395
    ORTHCH:  cpu time    0.0969: real time    0.0977
       DOS:  cpu time    0.0004: real time    0.0254
    --------------------------------------------
      LOOP:  cpu time    0.8683: real time    0.9010

 eigenvalue-minimisations  :   608
 total energy-change (2. order) :-0.8129437E+02  (-0.6824498E+02)
 number of electron     400.0000000 magnetization     100.0000000
 augmentation part      400.0000000 magnetization     100.0000000

 Free energy of the ion-electron system (eV)
  ---------------------------------------------------
  alpha Z        PSCENC =       316.14514549
  Ewald energy   TEWEN  =    -14807.97940352
  -Hartree energ DENC   =      -139.37646286
  -exchange      EXHF   =         0.00000000
  -V(xc)+E(xc)   XCENC  =      -776.27861819
  PAW double counting   =      8803.41707833    -7043.47671478
  entropy T*S    EENTRO =        -0.02983889
  eigenvalues    EBANDS =      3001.58177791
  atomic energy  EATOM  =     10306.12861560
  Solvation  Ediel_sol  =         0.00000000
  ---------------------------------------------------
  free energy    TOTEN  =      -339.86842091 eV

  energy without entropy =     -339.83858202  energy(sigma->0) =     -339.85350147


--------------------------------------------------------------------------------------------------------




--------------------------------------- Iteration      1(   5)  ---------------------------------------


    EDDIAG:  cpu time    0.3361: real time    0.3383
  RMM-DIIS:  cpu time    0.4364: real time    0.4414
    ORTHCH:  cpu time    0.0971: real time    0.0978
       DOS:  cpu time    0.0003: real time    0.0003
    --------------------------------------------
      LOOP:  cpu time    0.8700: real time    0.8778

 eigenvalue-minimisations  :   608
 total energy-change (2. order) :-0.2670242E+02  (-0.2176941E+02)
 number of electron     400.0000000 magnetization     100.0000000
 augmentation part      400.0000000 magnetization     100.0000000

 Free energy of the ion-electron system (eV)
  ---------------------------------------------------
  alpha Z        PSCENC =       316.14514549
  Ewald energy   TEWEN  =    -14807.97940352
  -Hartree energ DENC   =      -139.37646286
  -exchange      EXHF   =         0.00000000
  -V(xc)+E(xc)   XCENC  =      -776.27861819
  PAW double counting   =      8803.41707833    -7043.47671478
  entropy T*S    EENTRO =        -0.06096631
  eigenvalues    EBANDS =      2974.91048780
  atomic energy  EATOM  =     10306.12861560
  Solvation  Ediel_sol  =         0.00000000
  ---------------------------------------------------
  free energy    TOTEN  =      -366.57083844 eV

  energy without entropy =     -366.50987213  energy(sigma->0) =     -366.54035529


--------------------------------------------------------------------------------------------------------




--------------------------------------- Iteration      1(   6)  ---------------------------------------


    EDDIAG:  cpu time    0.3352: real time    0.3371
  RMM-DIIS:  cpu time    0.4380: real time    0.4429
    ORTHCH:  cpu time    0.0972: real time    0.0978
       DOS:  cpu time    0.0003: real time    0.0003
    --------------------------------------------
      LOOP:  cpu time    0.8707: real time    0.8781

 eigenvalue-minimisations  :   608
 total energy-change (2. order) :-0.1009990E+02  (-0.7771136E+01)
 number of electron     400.0000000 magnetization     100.0000000
 augmentation part      400.0000000 magnetization     100.0000000

 Free energy of the ion-electron system (eV)
  ---------------------------------------------------
  alpha Z        PSCENC =       316.14514549
  Ewald energy   TEWEN  =    -14807.97940352
  -Hartree energ DENC   =      -139.37646286
  -exchange      EXHF   =         0.00000000
  -V(xc)+E(xc)   XCENC  =      -776.27861819
  PAW double counting   =      8803.41707833    -7043.47671478
  entropy T*S    EENTRO =        -0.04719556
  eigenvalues    EBANDS =      2964.79682022
  atomic energy  EATOM  =     10306.12861560
  Solvation  Ediel_sol  =         0.00000000
  ---------------------------------------------------
  free energy    TOTEN  =      -376.67073528 eV

  energy without entropy =     -376.62353971  energy(sigma->0) =     -376.64713749


--------------------------------------------------------------------------------------------------------




--------------------------------------- Iteration      1(   7)  ---------------------------------------


    EDDIAG:  cpu time    0.3376: real time    0.3395
  RMM-DIIS:  cpu time    0.4377: real time    0.4427
    ORTHCH:  cpu time    0.0977: real time    0.0983
       DOS:  cpu time    0.0003: real time    0.0003
    --------------------------------------------
      LOOP:  cpu time    0.8733: real time    0.8809

 eigenvalue-minimisations  :   608
 total energy-change (2. order) :-0.3714128E+01  (-0.3071805E+01)
 number of electron     400.0000000 magnetization     100.0000000
 augmentation part      400.0000000 magnetization     100.0000000

 Free energy of the ion-electron system (eV)
  ---------------------------------------------------
  alpha Z        PSCENC =       316.14514549
  Ewald energy   TEWEN  =    -14807.97940352
  -Hartree energ DENC   =      -139.37646286
  -exchange      EXHF   =         0.00000000
  -V(xc)+E(xc)   XCENC  =      -776.27861819
  PAW double counting   =      8803.41707833    -7043.47671478
  entropy T*S    EENTRO =        -0.05020438
  eigenvalues    EBANDS =      2961.08570089
  atomic energy  EATOM  =     10306.12861560
  Solvation  Ediel_sol  =         0.00000000
  ---------------------------------------------------
  free energy    TOTEN  =      -380.38486341 eV

  energy without entropy =     -380.33465904  energy(sigma->0) =     -380.35976122


--------------------------------------------------------------------------------------------------------




--------------------------------------- Iteration      1(   8)  ---------------------------------------


    EDDIAG:  cpu time    0.3369: real time    0.3389
  RMM-DIIS:  cpu time    0.4343: real time    0.4392
    ORTHCH:  cpu time    0.0972: real time    0.0978
       DOS:  cpu time    0.0003: real time    0.0003
    --------------------------------------------
      LOOP:  cpu time    0.8687: real time    0.8762

 eigenvalue-minimisations  :   608
 total energy-change (2. order) :-0.1527773E+01  (-0.1250232E+01)
 number of electron     400.0000000 magnetization     100.0000000
 augmentation part      400.0000000 magnetization     100.0000000

 Free energy of the ion-electron system (eV)
  ---------------------------------------------------
  alpha Z        PSCENC =       316.14514549
  Ewald energy   TEWEN  =    -14807.97940352
  -Hartree energ DENC   =      -139.37646286
  -exchange      EXHF   =         0.00000000
  -V(xc)+E(xc)   XCENC  =      -776.27861819
  PAW double counting   =      8803.41707833    -7043.47671478
  entropy T*S    EENTRO =        -0.04657197
  eigenvalues    EBANDS =      2959.55429499
  atomic energy  EATOM  =     10306.12861560
  Solvation  Ediel_sol  =         0.00000000
  ---------------------------------------------------
  free energy    TOTEN  =      -381.91263690 eV

  energy without entropy =     -381.86606494  energy(sigma->0) =     -381.88935092


--------------------------------------------------------------------------------------------------------




--------------------------------------- Iteration      1(   9)  ---------------------------------------


    EDDIAG:  cpu time    0.3363: real time    0.3383
  RMM-DIIS:  cpu time    0.9881: real time    1.0003
    ORTHCH:  cpu time    0.0980: real time    0.0986
       DOS:  cpu time    0.0003: real time    0.0003
    --------------------------------------------
      LOOP:  cpu time    1.4227: real time    1.4375

 eigenvalue-minimisations  :  1517
 total energy-change (2. order) :-0.9223966E+00  (-0.8484578E+00)
 number of electron     400.0000000 magnetization     100.0000000
 augmentation part      400.0000000 magnetization     100.0000000

 Free energy of the ion-electron system (eV)
  ---------------------------------------------------
  alpha Z        PSCENC =       316.14514549
  Ewald energy   TEWEN  =    -14807.97940352
  -Hartree energ DENC   =      -139.37646286
  -exchange      EXHF   =         0.00000000
  -V(xc)+E(xc)   XCENC  =      -776.27861819
  PAW double counting   =      8803.41707833    -7043.47671478
  entropy T*S    EENTRO =        -0.04711856
  eigenvalues    EBANDS =      2958.63244503
  atomic energy  EATOM  =     10306.12861560
  Solvation  Ediel_sol  =         0.00000000
  ---------------------------------------------------
  free energy    TOTEN  =      -382.83503346 eV

  energy without entropy =     -382.78791490  energy(sigma->0) =     -382.81147418


--------------------------------------------------------------------------------------------------------




--------------------------------------- Iteration      1(  10)  ---------------------------------------


    EDDIAG:  cpu time    0.3351: real time    0.3373
  RMM-DIIS:  cpu time    0.9630: real time    0.9749
    ORTHCH:  cpu time    0.0973: real time    0.0979
       DOS:  cpu time    0.0004: real time    0.0004
    --------------------------------------------
      LOOP:  cpu time    1.3957: real time    1.4105

 eigenvalue-minimisations  :  1487
 total energy-change (2. order) :-0.1067400E+00  (-0.4751750E-01)
 number of electron     400.0000000 magnetization     100.0000000
 augmentation part      400.0000000 magnetization     100.0000000

 Free energy of the ion-electron system (eV)
  ---------------------------------------------------
  alpha Z        PSCENC =       316.14514549
  Ewald energy   TEWEN  =    -14807.97940352
  -Hartree energ DENC   =      -139.37646286
  -exchange      EXHF   =         0.00000000
  -V(xc)+E(xc)   XCENC  =      -776.27861819
  PAW double counting   =      8803.41707833    -7043.47671478
  entropy T*S    EENTRO =        -0.04815635
  eigenvalues    EBANDS =      2958.52674283
  atomic energy  EATOM  =     10306.12861560
  Solvation  Ediel_sol  =         0.00000000
  ---------------------------------------------------
  free energy    TOTEN  =      -382.94177345 eV

  energy without entropy =     -382.89361710  energy(sigma->0) =     -382.91769527


--------------------------------------------------------------------------------------------------------




--------------------------------------- Iteration      1(  11)  ---------------------------------------


    EDDIAG:  cpu time    0.3362: real time    0.3382
  RMM-DIIS:  cpu time    0.9101: real time    0.9212
    ORTHCH:  cpu time    0.0976: real time    0.0982
       DOS:  cpu time    0.0003: real time    0.0003
    --------------------------------------------
      LOOP:  cpu time    1.3443: real time    1.3579

 eigenvalue-minimisations  :  1381
 total energy-change (2. order) :-0.1958936E-02  (-0.1350003E-02)
 number of electron     400.0000000 magnetization     100.0000000
 augmentation part      400.0000000 magnetization     100.0000000

 Free energy of the ion-electron system (eV)
  ---------------------------------------------------
  alpha Z        PSCENC =       316.14514549
  Ewald energy   TEWEN  =    -14807.97940352
  -Hartree energ DENC   =      -139.37646286
  -exchange      EXHF   =         0.00000000
  -V(xc)+E(xc)   XCENC  =      -776.27861819
  PAW double counting   =      8803.41707833    -7043.47671478
  entropy T*S    EENTRO =        -0.04816885
  eigenvalues    EBANDS =      2958.52479640
  atomic energy  EATOM  =     10306.12861560
  Solvation  Ediel_sol  =         0.00000000
  ---------------------------------------------------
  free energy    TOTEN  =      -382.94373239 eV

  energy without entropy =     -382.89556353  energy(sigma->0) =     -382.91964796


--------------------------------------------------------------------------------------------------------




--------------------------------------- Iteration      1(  12)  ---------------------------------------


    EDDIAG:  cpu time    0.3366: real time    0.3386
  RMM-DIIS:  cpu time    0.7836: real time    0.7933
    ORTHCH:  cpu time    0.0971: real time    0.0977
       DOS:  cpu time    0.0003: real time    0.0003
    CHARGE:  cpu time    0.0445: real time    0.0447
    MIXING:  cpu time    0.0010: real time    0.0010
    --------------------------------------------
      LOOP:  cpu time    1.2632: real time    1.2758

 eigenvalue-minimisations  :  1117
 total energy-change (2. order) :-0.1769850E-04  (-0.1742026E-04)
 number of electron     399.9999900 magnetization      66.4838096
 augmentation part      -23.8904156 magnetization      42.0682244

 Broyden mixing:
  rms(total) = 0.64997E+01    rms(broyden)= 0.64996E+01
  rms(prec ) = 0.67768E+01
  weight for this iteration     100.00

 Free energy of the ion-electron system (eV)
  ---------------------------------------------------
  alpha Z        PSCENC =       316.14514549
  Ewald energy   TEWEN  =    -14807.97940352
  -Hartree energ DENC   =      -139.37646286
  -exchange      EXHF   =         0.00000000
  -V(xc)+E(xc)   XCENC  =      -776.27861819
  PAW double counting   =      8803.41707833    -7043.47671478
  entropy T*S    EENTRO =        -0.04816895
  eigenvalues    EBANDS =      2958.52477880
  atomic energy  EATOM  =     10306.12861560
  Solvation  Ediel_sol  =         0.00000000
  ---------------------------------------------------
  free energy    TOTEN  =      -382.94375008 eV

  energy without entropy =     -382.89558113  energy(sigma->0) =     -382.91966561


--------------------------------------------------------------------------------------------------------




--------------------------------------- Iteration      1(  13)  ---------------------------------------


    POTLOK:  cpu time    0.0529: real time    0.0548
    SETDIJ:  cpu time    0.0348: real time    0.0349
    EDDIAG:  cpu time    0.3382: real time    0.3400
  RMM-DIIS:  cpu time    0.8676: real time    0.8787
    ORTHCH:  cpu time    0.0987: real time    0.0993
       DOS:  cpu time    0.0004: real time    0.0004
    CHARGE:  cpu time    0.0448: real time    0.0450
    MIXING:  cpu time    0.0012: real time    0.0012
    --------------------------------------------
      LOOP:  cpu time    1.4387: real time    1.4544

 eigenvalue-minimisations  :  1326
 total energy-change (2. order) :-0.2460828E+01  (-0.2092069E+01)
 number of electron     399.9999897 magnetization      32.8913475
 augmentation part      -23.8808638 magnetization      14.5402744

 Broyden mixing:
  rms(total) = 0.39183E+01    rms(broyden)= 0.39183E+01
  rms(prec ) = 0.40217E+01
  weight for this iteration     100.00

 eigenvalues of (default mixing * dielectric matrix)
  average eigenvalue GAMMA=   1.2645
  1.2645

 Free energy of the ion-electron system (eV)
  ---------------------------------------------------
  alpha Z        PSCENC =       316.14514549
  Ewald energy   TEWEN  =    -14807.97940352
  -Hartree energ DENC   =      -174.50670322
  -exchange      EXHF   =         0.00000000
  -V(xc)+E(xc)   XCENC  =      -774.81069406
  PAW double counting   =     32532.03983905   -30779.57444974
  entropy T*S    EENTRO =        -0.03736023
  eigenvalues    EBANDS =      2997.19043228
  atomic energy  EATOM  =     10306.12861560
  Solvation  Ediel_sol  =         0.00000000
  ---------------------------------------------------
  free energy    TOTEN  =      -385.40457836 eV

  energy without entropy =     -385.36721813  energy(sigma->0) =     -385.38589824


--------------------------------------------------------------------------------------------------------




--------------------------------------- Iteration      1(  14)  ---------------------------------------


    POTLOK:  cpu time    0.0524: real time    0.0528
    SETDIJ:  cpu time    0.0348: real time    0.0349
    EDDIAG:  cpu time    0.3358: real time    0.3377
  RMM-DIIS:  cpu time    0.8645: real time    0.8751
    ORTHCH:  cpu time    0.0994: real time    0.1000
       DOS:  cpu time    0.0003: real time    0.0003
    CHARGE:  cpu time    0.0446: real time    0.0448
    MIXING:  cpu time    0.0013: real time    0.0013
    --------------------------------------------
      LOOP:  cpu time    1.4331: real time    1.4468

 eigenvalue-minimisations  :  1324
 total energy-change (2. order) :-0.6941628E+01  (-0.7542392E+00)
 number of electron     399.9999894 magnetization      13.6270129
 augmentation part      -23.9155064 magnetization       4.9746829

 Broyden mixing:
  rms(total) = 0.18449E+01    rms(broyden)= 0.18449E+01
  rms(prec ) = 0.20888E+01
  weight for this iteration     100.00

 eigenvalues of (default mixing * dielectric matrix)
  average eigenvalue GAMMA=   1.4775
  2.3723  0.5828

 Free energy of the ion-electron system (eV)
  ---------------------------------------------------
  alpha Z        PSCENC =       316.14514549
  Ewald energy   TEWEN  =    -14807.97940352
  -Hartree energ DENC   =      -187.75899606
  -exchange      EXHF   =         0.00000000
  -V(xc)+E(xc)   XCENC  =      -769.72282720
  PAW double counting   =     70762.45359274   -69016.32052380
  entropy T*S    EENTRO =        -0.05043585
  eigenvalues    EBANDS =      3004.75862604
  atomic energy  EATOM  =     10306.12861560
  Solvation  Ediel_sol  =         0.00000000
  ---------------------------------------------------
  free energy    TOTEN  =      -392.34620657 eV

  energy without entropy =     -392.29577072  energy(sigma->0) =     -392.32098865


--------------------------------------------------------------------------------------------------------




--------------------------------------- Iteration      1(  15)  ---------------------------------------


    POTLOK:  cpu time    0.0524: real time    0.0528
    SETDIJ:  cpu time    0.0348: real time    0.0349
    EDDIAG:  cpu time    0.3353: real time    0.3372
  RMM-DIIS:  cpu time    0.9282: real time    0.9397
    ORTHCH:  cpu time    0.0989: real time    0.0995
       DOS:  cpu time    0.0003: real time    0.0003
    CHARGE:  cpu time    0.0436: real time    0.0438
    MIXING:  cpu time    0.0014: real time    0.0014
    --------------------------------------------
      LOOP:  cpu time    1.4949: real time    1.5096

 eigenvalue-minimisations  :  1391
 total energy-change (2. order) :-0.7148412E+00  (-0.1622305E+00)
 number of electron     399.9999898 magnetization       9.3922907
 augmentation part      -23.9674720 magnetization       4.7852820

 Broyden mixing:
  rms(total) = 0.38165E+00    rms(broyden)= 0.38164E+00
  rms(prec ) = 0.48730E+00
  weight for this iteration     100.00

 eigenvalues of (default mixing * dielectric matrix)
  average eigenvalue GAMMA=   1.3007
  2.3951  0.9068  0.6002

 Free energy of the ion-electron system (eV)
  ---------------------------------------------------
  alpha Z        PSCENC =       316.14514549
  Ewald energy   TEWEN  =    -14807.97940352
  -Hartree energ DENC   =      -198.60528739
  -exchange      EXHF   =         0.00000000
  -V(xc)+E(xc)   XCENC  =      -766.52809276
  PAW double counting   =     94397.15752364   -92654.77290629
  entropy T*S    EENTRO =        -0.04899902
  eigenvalues    EBANDS =      3015.44235652
  atomic energy  EATOM  =     10306.12861560
  Solvation  Ediel_sol  =         0.00000000
  ---------------------------------------------------
  free energy    TOTEN  =      -393.06104773 eV

  energy without entropy =     -393.01204871  energy(sigma->0) =     -393.03654822


--------------------------------------------------------------------------------------------------------




--------------------------------------- Iteration      1(  16)  ---------------------------------------


    POTLOK:  cpu time    0.0524: real time    0.0528
    SETDIJ:  cpu time    0.0348: real time    0.0349
    EDDIAG:  cpu time    0.3357: real time    0.3376
  RMM-DIIS:  cpu time    0.9027: real time    0.9138
    ORTHCH:  cpu time    0.0987: real time    0.0993
       DOS:  cpu time    0.0004: real time    0.0004
    CHARGE:  cpu time    0.0437: real time    0.0439
    MIXING:  cpu time    0.0015: real time    0.0015
    --------------------------------------------
      LOOP:  cpu time    1.4698: real time    1.4841

 eigenvalue-minimisations  :  1398
 total energy-change (2. order) :-0.1346021E+00  (-0.4448922E-01)
 number of electron     399.9999896 magnetization       6.2708863
 augmentation part      -23.9830971 magnetization       2.8931582

 Broyden mixing:
  rms(total) = 0.24221E+00    rms(broyden)= 0.24221E+00
  rms(prec ) = 0.28730E+00
  weight for this iteration     100.00

 eigenvalues of (default mixing * dielectric matrix)
  average eigenvalue GAMMA=   1.3291
  2.3729  1.5369  0.7916  0.6153

 Free energy of the ion-electron system (eV)
  ---------------------------------------------------
  alpha Z        PSCENC =       316.14514549
  Ewald energy   TEWEN  =    -14807.97940352
  -Hartree energ DENC   =      -197.69453879
  -exchange      EXHF   =         0.00000000
  -V(xc)+E(xc)   XCENC  =      -766.25031995
  PAW double counting   =     95687.13072230   -93945.04354661
  entropy T*S    EENTRO =        -0.04891006
  eigenvalues    EBANDS =      3014.41658566
  atomic energy  EATOM  =     10306.12861560
  Solvation  Ediel_sol  =         0.00000000
  ---------------------------------------------------
  free energy    TOTEN  =      -393.19564988 eV

  energy without entropy =     -393.14673982  energy(sigma->0) =     -393.17119485


--------------------------------------------------------------------------------------------------------




--------------------------------------- Iteration      1(  17)  ---------------------------------------


    POTLOK:  cpu time    0.0524: real time    0.0528
    SETDIJ:  cpu time    0.0348: real time    0.0349
    EDDIAG:  cpu time    0.3375: real time    0.3394
  RMM-DIIS:  cpu time    0.8829: real time    0.9343
    ORTHCH:  cpu time    0.0997: real time    0.1004
       DOS:  cpu time    0.0004: real time    0.0004
    CHARGE:  cpu time    0.0437: real time    0.0439
    MIXING:  cpu time    0.0016: real time    0.0016
    --------------------------------------------
      LOOP:  cpu time    1.4530: real time    1.5077

 eigenvalue-minimisations  :  1419
 total energy-change (2. order) :-0.7291245E-01  (-0.1161321E-01)
 number of electron     399.9999898 magnetization       3.6452693
 augmentation part      -23.9934488 magnetization       1.0579108

 Broyden mixing:
  rms(total) = 0.14617E+00    rms(broyden)= 0.14616E+00
  rms(prec ) = 0.17013E+00
  weight for this iteration     100.00

 eigenvalues of (default mixing * dielectric matrix)
  average eigenvalue GAMMA=   1.3591
  2.3607  2.1685  0.9531  0.6155  0.6979

 Free energy of the ion-electron system (eV)
  ---------------------------------------------------
  alpha Z        PSCENC =       316.14514549
  Ewald energy   TEWEN  =    -14807.97940352
  -Hartree energ DENC   =      -196.47007395
  -exchange      EXHF   =         0.00000000
  -V(xc)+E(xc)   XCENC  =      -766.14719340
  PAW double counting   =     95383.91253479   -93641.92938668
  entropy T*S    EENTRO =        -0.04870622
  eigenvalues    EBANDS =      3013.11990556
  atomic energy  EATOM  =     10306.12861560
  Solvation  Ediel_sol  =         0.00000000
  ---------------------------------------------------
  free energy    TOTEN  =      -393.26856233 eV

  energy without entropy =     -393.21985612  energy(sigma->0) =     -393.24420923


--------------------------------------------------------------------------------------------------------




--------------------------------------- Iteration      1(  18)  ---------------------------------------


    POTLOK:  cpu time    0.0524: real time    0.0528
    SETDIJ:  cpu time    0.0348: real time    0.0349
    EDDIAG:  cpu time    0.3375: real time    0.3394
  RMM-DIIS:  cpu time    0.9235: real time    0.9351
    ORTHCH:  cpu time    0.0985: real time    0.0992
       DOS:  cpu time    0.0004: real time    0.0004
    CHARGE:  cpu time    0.0435: real time    0.0437
    MIXING:  cpu time    0.0017: real time    0.0017
    --------------------------------------------
      LOOP:  cpu time    1.4923: real time    1.5071

 eigenvalue-minimisations  :  1403
 total energy-change (2. order) :-0.4485139E-01  (-0.3818418E-02)
 number of electron     399.9999897 magnetization       2.0845533
 augmentation part      -23.9990874 magnetization       0.1928815

 Broyden mixing:
  rms(total) = 0.74960E-01    rms(broyden)= 0.74958E-01
  rms(prec ) = 0.90319E-01
  weight for this iteration     100.00

 eigenvalues of (default mixing * dielectric matrix)
  average eigenvalue GAMMA=   1.3711
  2.6982  2.3511  1.1507  0.8318  0.5976  0.5976

 Free energy of the ion-electron system (eV)
  ---------------------------------------------------
  alpha Z        PSCENC =       316.14514549
  Ewald energy   TEWEN  =    -14807.97940352
  -Hartree energ DENC   =      -195.89369995
  -exchange      EXHF   =         0.00000000
  -V(xc)+E(xc)   XCENC  =      -766.02236306
  PAW double counting   =     95033.00332755   -93291.11944171
  entropy T*S    EENTRO =        -0.04921551
  eigenvalues    EBANDS =      3012.47362139
  atomic energy  EATOM  =     10306.12861560
  Solvation  Ediel_sol  =         0.00000000
  ---------------------------------------------------
  free energy    TOTEN  =      -393.31341373 eV

  energy without entropy =     -393.26419822  energy(sigma->0) =     -393.28880597


--------------------------------------------------------------------------------------------------------




--------------------------------------- Iteration      1(  19)  ---------------------------------------


    POTLOK:  cpu time    0.0523: real time    0.0527
    SETDIJ:  cpu time    0.0348: real time    0.0349
    EDDIAG:  cpu time    0.3368: real time    0.3387
  RMM-DIIS:  cpu time    0.9368: real time    0.9483
    ORTHCH:  cpu time    0.0991: real time    0.0997
       DOS:  cpu time    0.0004: real time    0.0004
    CHARGE:  cpu time    0.0435: real time    0.0437
    MIXING:  cpu time    0.0019: real time    0.0019
    --------------------------------------------
      LOOP:  cpu time    1.5056: real time    1.5203

 eigenvalue-minimisations  :  1430
 total energy-change (2. order) :-0.1160714E-01  (-0.1257886E-02)
 number of electron     399.9999897 magnetization       1.4343957
 augmentation part      -24.0017498 magnetization       0.0204189

 Broyden mixing:
  rms(total) = 0.31566E-01    rms(broyden)= 0.31564E-01
  rms(prec ) = 0.38350E-01
  weight for this iteration     100.00

 eigenvalues of (default mixing * dielectric matrix)
  average eigenvalue GAMMA=   1.3273
  2.8853  2.3694  1.2030  0.9299  0.7563  0.6147  0.5323

 Free energy of the ion-electron system (eV)
  ---------------------------------------------------
  alpha Z        PSCENC =       316.14514549
  Ewald energy   TEWEN  =    -14807.97940352
  -Hartree energ DENC   =      -196.14867037
  -exchange      EXHF   =         0.00000000
  -V(xc)+E(xc)   XCENC  =      -765.92505824
  PAW double counting   =     94824.77841509   -93082.96208089
  entropy T*S    EENTRO =        -0.05762934
  eigenvalues    EBANDS =      3012.69564532
  atomic energy  EATOM  =     10306.12861560
  Solvation  Ediel_sol  =         0.00000000
  ---------------------------------------------------
  free energy    TOTEN  =      -393.32502087 eV

  energy without entropy =     -393.26739152  energy(sigma->0) =     -393.29620620


--------------------------------------------------------------------------------------------------------




--------------------------------------- Iteration      1(  20)  ---------------------------------------


    POTLOK:  cpu time    0.0524: real time    0.0528
    SETDIJ:  cpu time    0.0348: real time    0.0349
    EDDIAG:  cpu time    0.3372: real time    0.3392
  RMM-DIIS:  cpu time    0.9403: real time    0.9520
    ORTHCH:  cpu time    0.0987: real time    0.0993
       DOS:  cpu time    0.0004: real time    0.0004
    CHARGE:  cpu time    0.0435: real time    0.0437
    MIXING:  cpu time    0.0020: real time    0.0020
    --------------------------------------------
      LOOP:  cpu time    1.5092: real time    1.5242

 eigenvalue-minimisations  :  1433
 total energy-change (2. order) :-0.2741832E-02  (-0.3489760E-03)
 number of electron     399.9999897 magnetization       1.0664959
 augmentation part      -24.0021115 magnetization      -0.0215301

 Broyden mixing:
  rms(total) = 0.16641E-01    rms(broyden)= 0.16639E-01
  rms(prec ) = 0.20253E-01
  weight for this iteration     100.00

 eigenvalues of (default mixing * dielectric matrix)
  average eigenvalue GAMMA=   1.3587
  3.2437  2.3264  1.5146  1.1289  0.8747  0.6501  0.6218  0.5093

 Free energy of the ion-electron system (eV)
  ---------------------------------------------------
  alpha Z        PSCENC =       316.14514549
  Ewald energy   TEWEN  =    -14807.97940352
  -Hartree energ DENC   =      -196.26318692
  -exchange      EXHF   =         0.00000000
  -V(xc)+E(xc)   XCENC  =      -765.89799177
  PAW double counting   =     94660.56998755   -92918.77255531
  entropy T*S    EENTRO =        -0.06237433
  eigenvalues    EBANDS =      3012.80400051
  atomic energy  EATOM  =     10306.12861560
  Solvation  Ediel_sol  =         0.00000000
  ---------------------------------------------------
  free energy    TOTEN  =      -393.32776270 eV

  energy without entropy =     -393.26538837  energy(sigma->0) =     -393.29657553


--------------------------------------------------------------------------------------------------------




--------------------------------------- Iteration      1(  21)  ---------------------------------------


    POTLOK:  cpu time    0.0523: real time    0.0527
    SETDIJ:  cpu time    0.0348: real time    0.0349
    EDDIAG:  cpu time    0.3376: real time    0.3395
  RMM-DIIS:  cpu time    0.9370: real time    0.9482
    ORTHCH:  cpu time    0.0986: real time    0.0993
       DOS:  cpu time    0.0004: real time    0.0004
    CHARGE:  cpu time    0.0436: real time    0.0437
    MIXING:  cpu time    0.0021: real time    0.0022
    --------------------------------------------
      LOOP:  cpu time    1.5064: real time    1.5207

 eigenvalue-minimisations  :  1414
 total energy-change (2. order) :-0.1106904E-02  (-0.1527547E-03)
 number of electron     399.9999897 magnetization       0.7716422
 augmentation part      -24.0019956 magnetization      -0.0811053

 Broyden mixing:
  rms(total) = 0.10987E-01    rms(broyden)= 0.10985E-01
  rms(prec ) = 0.12132E-01
  weight for this iteration     100.00

 eigenvalues of (default mixing * dielectric matrix)
  average eigenvalue GAMMA=   1.3883
  3.6555  2.1976  1.9533  1.1477  0.9874  0.8058  0.6211  0.6211  0.5051

 Free energy of the ion-electron system (eV)
  ---------------------------------------------------
  alpha Z        PSCENC =       316.14514549
  Ewald energy   TEWEN  =    -14807.97940352
  -Hartree energ DENC   =      -196.29705190
  -exchange      EXHF   =         0.00000000
  -V(xc)+E(xc)   XCENC  =      -765.88982982
  PAW double counting   =     94595.01993914   -92853.22971890
  entropy T*S    EENTRO =        -0.06552667
  eigenvalues    EBANDS =      3012.83896097
  atomic energy  EATOM  =     10306.12861560
  Solvation  Ediel_sol  =         0.00000000
  ---------------------------------------------------
  free energy    TOTEN  =      -393.32886960 eV

  energy without entropy =     -393.26334294  energy(sigma->0) =     -393.29610627


--------------------------------------------------------------------------------------------------------




--------------------------------------- Iteration      1(  22)  ---------------------------------------


    POTLOK:  cpu time    0.0524: real time    0.0527
    SETDIJ:  cpu time    0.0348: real time    0.0349
    EDDIAG:  cpu time    0.3385: real time    0.3404
  RMM-DIIS:  cpu time    0.9235: real time    0.9347
    ORTHCH:  cpu time    0.0988: real time    0.0994
       DOS:  cpu time    0.0004: real time    0.0004
    CHARGE:  cpu time    0.0435: real time    0.0437
    MIXING:  cpu time    0.0023: real time    0.0023
    --------------------------------------------
[...]
   0.190E+02 -.116E+02 0.107E+02   -.174E+02 0.988E+01 -.106E+02   -.596E+01 0.349E+01 -.335E+00   -.156E-02 0.157E-02 -.457E-03
   -.317E+01 -.938E+01 -.147E+01   0.145E+01 0.627E+01 -.115E+01   0.256E+01 0.566E+01 0.527E+01   -.105E-02 -.771E-03 0.398E-03
   0.230E+02 -.723E+01 0.268E+02   -.211E+02 0.785E+01 -.265E+02   -.443E+01 -.165E+00 -.168E+01   0.122E-02 0.554E-03 0.181E-03
   -.365E+02 -.774E+01 -.545E-02   0.305E+02 0.681E+01 -.870E+00   0.143E+02 -.768E+00 0.273E+01   -.792E-03 -.612E-03 0.473E-03
   0.110E+00 0.660E+01 0.660E+01   0.223E+00 -.614E+01 -.684E+01   0.798E+00 -.291E+00 0.645E+00   0.656E-03 -.931E-03 0.998E-04
   0.312E+02 -.945E+01 0.167E+02   -.305E+02 0.724E+01 -.150E+02   -.323E+01 0.397E+01 -.253E+01   -.293E-03 0.103E-02 0.632E-04
   0.256E+00 0.964E+01 0.208E+01   0.572E+00 -.928E+01 -.102E+01   -.119E+01 -.209E+01 -.101E+01   -.119E-02 0.594E-03 -.276E-03
   0.222E+02 0.116E+02 -.254E+02   -.197E+02 -.108E+02 0.238E+02   -.427E+01 -.207E+01 0.494E+01   0.132E-02 0.265E-04 -.220E-03
   -.542E+01 -.582E+01 -.612E+01   0.717E+01 0.470E+01 0.712E+01   -.301E+01 0.228E+01 -.129E+01   -.122E-02 0.835E-03 0.350E-03
   0.451E+01 -.152E+02 0.136E+02   -.466E+01 0.151E+02 -.143E+02   -.259E+00 0.537E+00 0.523E+00   -.457E-03 -.707E-03 0.314E-04
   0.479E+01 -.203E+02 0.870E+01   -.573E+01 0.185E+02 -.799E+01   0.831E+00 0.389E+01 -.203E+01   -.860E-03 0.206E-03 -.398E-04
   -.137E+02 -.151E+02 -.207E+02   0.129E+02 0.146E+02 0.205E+02   0.422E+01 0.218E+01 0.113E+01   -.298E-03 0.131E-02 0.108E-05
   0.146E+02 -.756E+01 0.671E+01   -.121E+02 0.724E+01 -.755E+01   -.402E+01 0.482E+00 0.381E+00   -.955E-03 -.127E-02 -.467E-04
   -.456E+01 0.197E+02 0.957E+01   0.414E+01 -.194E+02 -.842E+01   0.623E+00 -.198E+01 -.136E+01   0.112E-02 0.129E-02 -.268E-04
   0.837E+01 0.144E+01 -.144E+01   -.675E+01 -.357E+01 0.336E+01   -.120E+01 0.413E+01 -.232E+01   0.143E-02 0.114E-02 0.615E-04
   0.788E+01 0.406E+01 -.202E+01   -.610E+01 -.396E+01 0.803E+00   -.387E+01 -.475E+00 0.103E+01   0.427E-03 -.113E-02 -.377E-03
   0.183E+02 0.368E+01 -.205E+01   -.171E+02 -.520E+01 0.166E+01   -.148E+01 0.213E+01 -.361E+00   0.318E-03 -.112E-02 -.317E-03
   -.916E+01 -.365E+01 0.136E+02   0.718E+01 0.211E+01 -.126E+02   0.413E+01 0.252E+01 -.438E+01   -.122E-02 -.135E-02 -.136E-03
   -.274E+02 0.263E+02 -.984E+01   0.265E+02 -.245E+02 0.980E+01   0.194E+01 -.443E+01 0.858E+00   -.122E-02 -.719E-03 -.307E-03
   0.979E+01 -.600E+01 -.197E+02   -.103E+02 0.564E+01 0.182E+02   0.144E+00 -.108E+00 0.343E+01   0.858E-03 0.275E-03 -.154E-03
   0.142E+02 -.527E+01 -.184E+02   -.128E+02 0.357E+01 0.174E+02   -.207E+01 0.367E+01 0.176E+01   0.732E-03 -.112E-02 -.978E-04
   0.223E+02 -.257E+02 0.440E+01   -.186E+02 0.258E+02 -.317E+01   -.111E+02 0.413E+01 -.154E+01   0.710E-03 -.114E-02 0.392E-03
   -.547E+01 -.348E+00 -.972E+01   0.190E+01 -.546E+00 0.944E+01   0.600E+01 0.121E+01 -.533E+00   0.294E-03 -.975E-04 -.119E-03
   -.161E+02 -.128E+02 -.244E+01   0.150E+02 0.117E+02 0.344E+00   0.260E+01 0.209E+01 0.352E+01   0.104E-02 -.637E-03 -.827E-04
   -.552E+01 0.226E+02 -.557E+01   0.587E+01 -.218E+02 0.549E+01   -.175E+00 -.170E+01 0.968E+00   0.757E-03 0.349E-03 0.251E-03
   0.349E+02 0.138E+02 0.217E+01   -.320E+02 -.101E+02 -.827E+00   -.903E+01 -.768E+01 -.320E+01   0.798E-03 0.501E-03 0.273E-03
   0.558E+01 -.104E+02 -.211E+02   -.561E+01 0.105E+02 0.203E+02   0.715E+00 0.516E+00 0.330E+01   -.498E-03 0.379E-03 -.534E-03
   0.385E+01 0.990E+00 0.651E+00   -.403E+01 -.993E+00 -.174E+01   -.146E+01 -.187E+00 0.209E+01   -.509E-03 0.119E-02 0.265E-03
   -.214E+01 -.788E+01 0.742E+01   0.121E+01 0.609E+01 -.615E+01   0.128E+01 0.324E+01 -.315E+01   -.116E-02 -.502E-03 0.768E-04
   0.268E+02 -.145E+02 0.327E+02   -.242E+02 0.145E+02 -.316E+02   -.731E+01 0.217E+00 -.270E+01   0.121E-02 -.391E-03 0.282E-03
   -.107E+02 0.394E+02 -.449E+01   0.955E+01 -.369E+02 0.294E+01   0.196E+01 -.567E+01 0.171E+01   0.134E-02 0.111E-02 0.311E-03
   -.161E+02 0.153E+02 0.154E+02   0.167E+02 -.135E+02 -.112E+02   -.629E+00 -.228E+01 -.806E+01   -.814E-03 -.153E-02 -.978E-04
   0.206E+02 0.940E+01 -.863E+01   -.211E+02 -.105E+02 0.621E+01   -.161E+00 0.101E+01 0.367E+01   0.716E-03 -.130E-02 0.130E-03
   -.713E+01 -.257E+01 -.327E+02   0.546E+01 0.286E+01 0.299E+02   0.247E+01 -.253E+00 0.574E+01   0.668E-03 0.655E-03 -.658E-03
   -.147E+01 0.325E+01 -.278E+02   0.123E+01 -.196E+01 0.278E+02   0.108E+01 -.133E+01 0.343E+01   -.415E-03 -.359E-05 0.608E-03
   0.185E+02 0.211E+02 -.462E+01   -.174E+02 -.203E+02 0.485E+01   -.252E+01 -.157E+01 -.710E+00   0.400E-03 -.236E-03 -.130E-03
   -.294E+02 0.117E+02 0.111E+02   0.264E+02 -.117E+02 -.115E+02   0.715E+01 -.873E+00 0.779E+00   0.137E-02 0.111E-02 0.459E-03
   -.261E+01 -.558E+01 0.947E+00   0.189E+01 0.632E+01 -.373E+01   -.262E+00 -.212E+00 0.383E+01   0.830E-03 0.128E-02 0.396E-04
   -.965E+00 0.843E+01 -.848E+01   0.897E+00 -.961E+01 0.863E+01   0.384E+00 0.281E+01 0.607E+00   -.523E-03 0.998E-03 -.289E-03
   0.877E+01 -.130E+01 -.390E+02   -.784E+01 0.442E+00 0.359E+02   -.158E+01 0.114E+01 0.713E+01   0.192E-03 -.472E-03 -.309E-03
   -.315E+00 0.565E+01 0.248E+02   0.169E+01 -.403E+01 -.220E+02   -.172E+01 -.290E+01 -.359E+01   -.138E-02 0.646E-03 0.987E-04
   0.332E+01 -.283E+02 -.842E+01   -.133E+01 0.264E+02 0.878E+01   -.217E+01 0.428E+01 -.638E+00   0.887E-03 0.112E-02 -.381E-03
   -.111E+02 -.674E+01 0.722E+01   0.112E+02 0.762E+01 -.823E+01   0.177E+01 0.134E+01 0.506E+00   -.141E-02 -.166E-03 -.602E-03
   0.392E+01 -.198E+02 0.189E+01   -.266E+01 0.196E+02 -.228E+01   -.276E+01 0.160E+01 -.497E+00   -.572E-03 0.147E-02 -.105E-03
   0.106E+02 -.150E+02 -.702E+01   -.104E+02 0.141E+02 0.674E+01   -.868E-03 0.208E+01 -.204E+00   -.786E-03 0.118E-02 -.479E-03
   -.328E+02 0.125E+02 -.354E+01   0.301E+02 -.108E+02 0.213E+01   0.608E+01 -.426E+01 0.289E+01   -.116E-02 -.147E-02 0.268E-03
   0.555E+01 0.484E+01 -.163E+02   -.421E+01 -.477E+01 0.153E+02   -.146E+01 -.365E+00 0.185E+01   0.144E-02 0.113E-02 -.280E-03
   0.252E+01 -.658E+01 0.285E+02   -.385E+01 0.730E+01 -.285E+02   0.158E+01 -.184E+01 -.206E+00   0.116E-02 -.125E-02 0.382E-03
   -.170E+02 -.307E+02 0.635E+01   0.176E+02 0.298E+02 -.335E+01   0.461E+00 0.315E+01 -.429E+01   -.849E-03 0.278E-03 -.158E-04
   -.249E+02 -.801E+01 0.155E+02   0.224E+02 0.719E+01 -.160E+02   0.671E+01 0.279E+01 -.977E+00   0.113E-02 0.137E-02 0.790E-04
   -.123E+02 0.137E+02 -.514E+01   0.150E+02 -.133E+02 0.592E+01   -.576E+01 -.189E+01 0.420E+00   -.119E-02 -.816E-03 0.548E-03
   -.162E+02 -.262E+02 -.508E+01   0.165E+02 0.263E+02 0.483E+01   0.313E+00 0.125E+01 0.108E+00   -.653E-03 0.158E-02 -.825E-04
   -.305E+01 0.298E+00 -.354E+02   0.230E+01 0.980E-01 0.327E+02   0.128E+01 -.248E+01 0.690E+01   0.102E-02 0.617E-03 -.965E-04
   -.890E+01 -.617E+01 -.902E+01   0.895E+01 0.381E+01 0.119E+02   0.874E-01 0.320E+01 -.384E+01   0.914E-03 0.117E-02 -.262E-04
   0.147E+02 0.159E+02 0.533E+01   -.144E+02 -.149E+02 -.333E+01   -.366E+00 -.331E+01 -.382E+01   0.122E-02 -.994E-03 -.310E-03
   0.468E+01 0.796E+01 0.153E+02   -.483E+01 -.615E+01 -.169E+02   -.187E+01 -.378E+01 0.145E+01   -.401E-03 -.871E-04 -.886E-05
   0.321E-01 0.767E+01 -.343E+01   0.649E+00 -.747E+01 0.508E+01   -.104E+01 -.971E+00 -.289E+01   -.131E-02 0.134E-02 -.230E-03
   -.106E+02 -.798E+01 0.933E+01   0.105E+02 0.854E+01 -.914E+01   0.968E+00 -.694E+00 -.432E+00   0.801E-03 -.135E-02 -.582E-04
   -.598E+01 0.139E+02 -.149E+02   0.507E+01 -.993E+01 0.163E+02   0.167E+01 -.688E+01 -.673E+00   -.582E-03 0.101E-02 0.289E-03
   0.747E+00 -.274E+02 0.523E+01   -.667E+00 0.234E+02 -.511E+01   0.396E-01 0.863E+01 -.211E+01   -.892E-03 0.728E-03 0.186E-03
   0.215E+02 -.619E+01 0.220E+02   -.188E+02 0.488E+01 -.201E+02   -.469E+01 0.346E+01 -.438E+01   0.138E-02 0.738E-03 -.203E-03
   -.930E+01 0.138E+00 -.132E+02   0.114E+02 -.122E+01 0.107E+02   -.310E+01 0.112E+01 0.419E+01   -.126E-02 0.139E-02 0.615E-03
   0.799E+01 -.577E+01 0.228E+02   -.778E+01 0.402E+01 -.214E+02   -.138E+01 0.611E+01 -.467E+01   -.775E-04 -.133E-03 -.356E-03
   -.955E+00 -.278E+01 -.577E+01   -.270E+01 0.318E+01 0.537E+01   0.588E+01 -.758E+00 0.608E+00   0.947E-03 -.110E-02 0.319E-03
   -.807E+01 0.931E+01 0.691E+01   0.692E+01 -.823E+01 -.639E+01   0.186E+01 -.135E+01 -.644E+00   -.644E-03 0.128E-02 0.569E-03
   -.226E+02 0.330E+02 0.207E+02   0.208E+02 -.313E+02 -.202E+02   0.564E+01 -.342E+01 -.481E+01   -.412E-03 -.105E-02 -.104E-04
   -.118E+02 0.161E+02 0.172E+02   0.109E+02 -.132E+02 -.158E+02   0.250E+01 -.504E+01 -.326E+01   0.555E-03 0.112E-02 -.195E-03
   0.204E+01 0.908E+01 -.207E+02   -.118E+01 -.932E+01 0.197E+02   -.166E+01 -.955E+00 0.402E+01   -.720E-03 -.146E-02 0.566E-03
   -.268E+01 -.184E+02 -.383E+01   0.267E+01 0.158E+02 0.469E+01   0.185E+00 0.530E+01 -.193E+01   0.589E-03 -.393E-04 -.121E-03
   0.740E+01 0.481E+01 -.151E+02   -.780E+01 -.507E+01 0.135E+02   -.121E+01 -.918E+00 0.349E+01   -.109E-02 0.144E-02 0.982E-05
   -.102E+01 0.599E+00 0.202E+02   0.252E+00 -.942E+00 -.185E+02   0.947E+00 0.541E+00 -.329E+01   -.761E-04 -.135E-02 0.249E-03
 -----------------------------------------------------------------------------------------------
   0.577E+01 -.687E+01 -.188E+01   -.147E-12 -.304E-12 0.195E-12   -.577E+01 0.688E+01 0.187E+01   -.177E-03 0.948E-03 -.223E-03
 
 
 POSITION                                       TOTAL-FORCE (eV/Angst)
 -----------------------------------------------------------------------------------
      8.77571      4.12592      3.60713         1.288765      1.574996     -2.394112
      4.61200      0.85362      3.64678        -1.719063      0.919763     -4.178483
      9.08199      8.09896      8.24502         1.385677      1.413933      2.054854
     10.04081      0.76207      6.21481        -0.920289     -5.578771      2.847385
      6.45685      9.88624      6.23873         2.631777     -5.749940      4.252618
      2.99013      8.36459      7.59284         1.194422      0.093480      0.801137
      7.03992      7.22565      6.43939         0.788596     -0.281850      2.034848
      5.64101      6.42409      0.25164         2.647047     -2.942472     -1.747779
      8.79615      6.15920      2.48464         2.115366     -0.110818      1.791071
      3.38164      6.96470      5.85794        -0.109345      2.149743     -2.623065
      1.03123      2.29558      1.99458        -0.168780     -2.565708     -1.426627
      3.09549      7.03668      3.42092         2.176815     -0.521488      0.555586
      9.23651      6.58998      6.59083        -0.724074     -2.005378      1.587731
      2.44505      0.46883      2.69561        -0.975691      1.343887     -0.161035
      8.52155      9.09021      6.38206         0.777667     -1.301066      4.430668
      1.54547      6.00228      9.48641         0.460965     -0.181854     -2.635286
      2.28680      8.89007      4.23039         3.436325     -0.003125      0.642817
      0.93147      6.84200      2.90666        -3.700156      0.866432     -0.188999
      8.90941      8.50414      2.22754        -2.353084     -1.873143     -0.350865
      5.92232      3.36176      5.85827         1.401293     -0.003414     -1.252156
      5.95976      4.13454      9.23409        -1.276388      0.638501     -0.387825
      0.79744      9.02723      5.77179        -1.794915     -0.969789      0.159848
      2.20114      3.57877      0.66820        -0.481975     -0.069256      1.126502
      5.80119      0.22493      9.87044        -2.275826     -0.037158     -1.687766
      6.94102     10.14960      3.52655        -2.362674      0.682556     -1.545300
      5.60057      3.41267      1.20034         2.997737      5.807585      1.062239
      1.22598      8.28019      9.32365        -0.170704     -0.011638      0.169590
      0.01307      2.30088      8.30689        -0.787024     -1.597839     -2.117177
      2.93238      0.05065      9.67109         0.341692     -1.589628     -0.957211
      8.33674      3.50702      5.57580        -4.363496      1.727017     -0.276669
      9.43807      0.34538      1.81080         0.837675      2.542949      2.652916
      2.12138      5.95547      1.38152        -2.515896      0.457528     -1.364104
      6.59645      6.98432      2.04709         8.283107     -1.704610      1.851000
      1.03597      9.97680      0.73604         1.131543      0.162714      0.406046
      0.39728      4.39162      2.11649        -2.517508      1.763168     -0.800153
      7.47917      5.69918      4.78780        -0.364762     -1.732355      0.049181
      2.72940      1.49894      6.95933        -1.689239     -1.202757      3.301666
      7.91013      5.52221      0.66324        -1.262556      1.162253     -0.287586
      0.01895      7.23214      0.81841        -0.410452      0.366070     -0.232346
      7.19980      6.22681      8.84389        -0.110695      2.097481     -1.329837
      0.14193      4.12316      9.72981         3.343872      1.632672      0.938031
      7.19030      7.92441      4.14158        -1.557852      0.159148     -0.458956
      4.66891      4.18579      3.98819         0.210084     -1.687270     -0.213094
      2.31223      4.90134      3.33065         0.426306      2.005108     -0.401433
      5.20575      8.15966      5.97979        -2.094710     -0.381410     -0.183917
      4.73328      9.92755      7.87653        -0.269254      0.616189     -0.759753
      8.77376      9.55049      4.45950         2.154868      0.987506     -3.344308
      7.89068      0.67507      7.95581         1.009166     -2.590096      0.826045
      4.03923      1.84523      8.74464        -0.378179     -0.467547      1.948433
      1.35867      9.92046      7.74246        -0.615247      1.964224      0.766832
      4.86375      7.76923      1.93730        -7.380531      4.199417     -0.311035
      1.20579      6.78135      5.02259         2.432356      0.314945     -0.817569
      1.86641      0.81951      4.89456         1.480667      0.970607      1.422204
      1.62759      1.79732      9.68812         0.174539     -0.853325      0.887969
      4.27823      2.03899      0.82040        -6.169522     -3.989576     -1.853817
      5.88030      1.72482      7.47164         0.677386      0.641299      2.481625
      6.29090      2.62281      3.47500        -1.634735     -0.189267      0.997395
      9.29422      7.04975      4.50019         0.351365      1.447273     -1.878977
      3.65580      6.84388      0.11334        -4.715907      0.280817     -1.537408
      3.23127      3.00714      2.66588         0.794846     -3.136745      0.155078
      6.65538      8.79732      8.60364        -0.011713     -0.456739     -3.838647
      4.58380      8.55945      9.56242        -0.673324     -0.095364      1.245864
      5.16447      5.53066      5.81271         0.802337      0.043519      2.983029
      6.24971      1.27633      1.58002         0.845194     -0.037599      3.466965
      5.17277      6.89502      8.02666        -1.445970     -0.727485     -0.483760
      4.02010      5.22285      1.85861         4.151392     -0.820103      0.349942
      2.14966      3.70766      8.53119        -0.987383      0.526186      1.050641
     10.16312      2.62270      5.68746         0.315666      1.630268      0.752860
      1.13002      7.10755      7.09883        -0.654695      0.283587      4.035768
      8.34514      1.96163      3.33522        -0.348609     -1.272579     -0.833680
      4.40893      3.65106      7.56517        -0.170214      2.356864     -0.283809
      7.82506      1.23262      5.53194         1.876597      2.228207     -0.499523
      0.20166      4.89944      5.39084        -1.503269      1.337545     -0.883487
      7.12995      4.88186      7.03688         0.192517      1.221623     -0.478762
      7.89523      8.24913     10.20722         3.330860     -2.534526      1.489736
      3.00649      4.80518      5.36976        -0.120824     -0.293797      0.805420
      2.30387      8.44808      1.71971         0.258936     -1.123459     -0.239001
      9.45873      6.06243      9.25377         1.137272      2.251133     -1.292957
      3.70193      4.55832      9.78681         4.227529      1.969416     -1.495838
      8.04669      0.47433      0.26645        -3.039127     -1.431019      1.203320
      9.83269      4.37138      7.43131         0.568166      1.387334     -0.141064
      2.92218      5.71980      7.47237         0.527232     -2.078010      4.204239
      1.75312      3.38901      6.51485         0.132342      0.842512     -0.932402
      3.68915     10.06740      5.93424        -0.079582     -2.342083     -1.822246
      0.16488      1.41016      3.76437        -2.025834     -1.975919     -0.188401
      7.96376      2.77833      7.61021        -0.363124     -0.773522     -1.240554
      4.60456      8.85416      3.94477         0.902035     -0.127934     -0.238646
      9.47845      2.40834      0.36649         0.764688     -2.918738      0.722267
      6.88740      2.03481      9.70892         0.118456      4.642961     -1.995091
      3.84819      2.45362      5.43496        -1.986698      2.153263     -2.442839
      7.90912      3.39244      1.32102        -1.017203      0.043305      1.659706
      5.57172      1.15898      5.42905        -1.164033      4.358852     -3.229707
      4.04951      9.95873      1.39223         2.221374     -0.358762      0.203866
      6.59063      4.82468      2.73034         0.709008     -0.276517     -0.123062
      9.71799      0.28512      9.38583         3.872681     -1.725659     -4.284047
      1.18684      3.39809      4.19245         1.620479     -2.132901     -1.894247
      6.60617      9.26779      1.35830        -0.801600     -1.192315      3.034085
      5.27155      6.30171      3.81681         0.168606      2.741013     -1.066570
      8.25762      4.22368      9.08186        -1.611649     -1.178547      1.837482
      0.41638      9.26134      3.36237         0.180093      0.196018     -1.613519
 -----------------------------------------------------------------------------------
    total drift:                                0.002619      0.008252     -0.009675


--------------------------------------------------------------------------------------------------------



  FREE ENERGIE OF THE ION-ELECTRON SYSTEM (eV)
  ---------------------------------------------------
  free  energy   TOTEN  =      -393.33027914 eV

  energy  without entropy=     -393.25997367  energy(sigma->0) =     -393.29512641
 


--------------------------------------------------------------------------------------------------------


    POTLOK:  cpu time    0.0886: real time    0.0890


--------------------------------------------------------------------------------------------------------


     LOOP+:  cpu time   36.4948: real time   37.0765
    4ORBIT:  cpu time    0.0000: real time    0.0000

 total amount of memory used by VASP MPI-rank0    53954. kBytes
=======================================================================

   base      :      30000. kBytes
   nonlr-proj:       8286. kBytes
   fftplans  :       1377. kBytes
   grid      :       7520. kBytes
   one-center:        614. kBytes
   wavefun   :       6157. kBytes
 
  
  
 General timing and accounting informations for this job:
 ========================================================
  
                  Total CPU time used (sec):       37.604
                            User time (sec):       36.165
                          System time (sec):        1.438
                         Elapsed time (sec):       39.238
  
                   Maximum memory used (kb):      174692.
                   Average memory used (kb):           0.
  
                          Minor page faults:       107165
                          Major page faults:            0
                 Voluntary context switches:          907
