BEGIN_CFG
 Size
    100
 Supercell
        10.211495      0.000000      0.000000
         0.000000     10.211495      0.000000
         0.000000      0.000000     10.211495
 AtomData:  id type       cartes_x      cartes_y      cartes_z           fx          fy          fz
             1    0       8.775710      4.125920      3.607130     1.288765    1.574996   -2.394112
             2    0       4.612000      0.853620      3.646780    -1.719063    0.919763   -4.178483
             3    0       9.081990      8.098960      8.245020     1.385677    1.413933    2.054854
             4    0      10.040810      0.762070      6.214810    -0.920289   -5.578771    2.847385
             5    0       6.456850      9.886240      6.238730     2.631777   -5.749940    4.252618
             6    0       2.990130      8.364590      7.592840     1.194422    0.093480    0.801137
             7    0       7.039920      7.225650      6.439390     0.788596   -0.281850    2.034848
             8    0       5.641010      6.424090      0.251640     2.647047   -2.942472   -1.747779
             9    0       8.796150      6.159200      2.484640     2.115366   -0.110818    1.791071
            10    0       3.381640      6.964700      5.857940    -0.109345    2.149743   -2.623065
            11    0       1.031230      2.295580      1.994580    -0.168780   -2.565708   -1.426627
            12    0       3.095490      7.036680      3.420920     2.176815   -0.521488    0.555586
            13    0       9.236510      6.589980      6.590830    -0.724074   -2.005378    1.587731
            14    0       2.445050      0.468830      2.695610    -0.975691    1.343887   -0.161035
            15    0       8.521550      9.090210      6.382060     0.777667   -1.301066    4.430668
            16    0       1.545470      6.002280      9.486410     0.460965   -0.181854   -2.635286
            17    0       2.286800      8.890070      4.230390     3.436325   -0.003125    0.642817
            18    0       0.931470      6.842000      2.906660    -3.700156    0.866432   -0.188999
            19    0       8.909410      8.504140      2.227540    -2.353084   -1.873143   -0.350865
            20    0       5.922320      3.361760      5.858270     1.401293   -0.003414   -1.252156
            21    0       5.959760      4.134540      9.234090    -1.276388    0.638501   -0.387825
            22    0       0.797440      9.027230      5.771790    -1.794915   -0.969789    0.159848
            23    0       2.201140      3.578770      0.668200    -0.481975   -0.069256    1.126502
            24    0       5.801190      0.224930      9.870440    -2.275826   -0.037158   -1.687766
            25    0       6.941020     10.149600      3.526550    -2.362674    0.682556   -1.545300
            26    0       5.600570      3.412670      1.200340     2.997737    5.807585    1.062239
            27    0       1.225980      8.280190      9.323650    -0.170704   -0.011638    0.169590
            28    0       0.013070      2.300880      8.306890    -0.787024   -1.597839   -2.117177
            29    0       2.932380      0.050650      9.671090     0.341692   -1.589628   -0.957211
            30    0       8.336740      3.507020      5.575800    -4.363496    1.727017   -0.276669
            31    0       9.438070      0.345380      1.810800     0.837675    2.542949    2.652916
            32    0       2.121380      5.955470      1.381520    -2.515896    0.457528   -1.364104
            33    0       6.596450      6.984320      2.047090     8.283107   -1.704610    1.851000
            34    0       1.035970      9.976800      0.736040     1.131543    0.162714    0.406046
            35    0       0.397280      4.391620      2.116490    -2.517508    1.763168   -0.800153
            36    0       7.479170      5.699180      4.787800    -0.364762   -1.732355    0.049181
            37    0       2.729400      1.498940      6.959330    -1.689239   -1.202757    3.301666
            38    0       7.910130      5.522210      0.663240    -1.262556    1.162253   -0.287586
            39    0       0.018950      7.232140      0.818410    -0.410452    0.366070   -0.232346
            40    0       7.199800      6.226810      8.843890    -0.110695    2.097481   -1.329837
            41    0       0.141930      4.123160      9.729810     3.343872    1.632672    0.938031
            42    0       7.190300      7.924410      4.141580    -1.557852    0.159148   -0.458956
            43    0       4.668910      4.185790      3.988190     0.210084   -1.687270   -0.213094
            44    0       2.312230      4.901340      3.330650     0.426306    2.005108   -0.401433
            45    0       5.205750      8.159660      5.979790    -2.094710   -0.381410   -0.183917
            46    0       4.733280      9.927550      7.876530    -0.269254    0.616189   -0.759753
            47    0       8.773760      9.550490      4.459500     2.154868    0.987506   -3.344308
            48    0       7.890680      0.675070      7.955810     1.009166   -2.590096    0.826045
            49    0       4.039230      1.845230      8.744640    -0.378179   -0.467547    1.948433
            50    0       1.358670      9.920460      7.742460    -0.615247    1.964224    0.766832
            51    0       4.863750      7.769230      1.937300    -7.380531    4.199417   -0.311035
            52    0       1.205790      6.781350      5.022590     2.432356    0.314945   -0.817569
            53    0       1.866410      0.819510      4.894560     1.480667    0.970607    1.422204
            54    0       1.627590      1.797320      9.688120     0.174539   -0.853325    0.887969
            55    0       4.278230      2.038990      0.820400    -6.169522   -3.989576   -1.853817
            56    0       5.880300      1.724820      7.471640     0.677386    0.641299    2.481625
            57    0       6.290900      2.622810      3.475000    -1.634735   -0.189267    0.997395
            58    0       9.294220      7.049750      4.500190     0.351365    1.447273   -1.878977
            59    0       3.655800      6.843880      0.113340    -4.715907    0.280817   -1.537408
            60    0       3.231270      3.007140      2.665880     0.794846   -3.136745    0.155078
            61    0       6.655380      8.797320      8.603640    -0.011713   -0.456739   -3.838647
            62    0       4.583800      8.559450      9.562420    -0.673324   -0.095364    1.245864
            63    0       5.164470      5.530660      5.812710     0.802337    0.043519    2.983029
            64    0       6.249710      1.276330      1.580020     0.845194   -0.037599    3.466965
            65    0       5.172770      6.895020      8.026660    -1.445970   -0.727485   -0.483760
            66    0       4.020100      5.222850      1.858610     4.151392   -0.820103    0.349942
            67    0       2.149660      3.707660      8.531190    -0.987383    0.526186    1.050641
            68    0      10.163120      2.622700      5.687460     0.315666    1.630268    0.752860
            69    0       1.130020      7.107550      7.098830    -0.654695    0.283587    4.035768
            70    0       8.345140      1.961630      3.335220    -0.348609   -1.272579   -0.833680
            71    0       4.408930      3.651060      7.565170    -0.170214    2.356864   -0.283809
            72    0       7.825060      1.232620      5.531940     1.876597    2.228207   -0.499523
            73    0       0.201660      4.899440      5.390840    -1.503269    1.337545   -0.883487
            74    0       7.129950      4.881860      7.036880     0.192517    1.221623   -0.478762
            75    0       7.895230      8.249130     10.207220     3.330860   -2.534526    1.489736
            76    0       3.006490      4.805180      5.369760    -0.120824   -0.293797    0.805420
            77    0       2.303870      8.448080      1.719710     0.258936   -1.123459   -0.239001
            78    0       9.458730      6.062430      9.253770     1.137272    2.251133   -1.292957
            79    0       3.701930      4.558320      9.786810     4.227529    1.969416   -1.495838
            80    0       8.046690      0.474330      0.266450    -3.039127   -1.431019    1.203320
            81    0       9.832690      4.371380      7.431310     0.568166    1.387334   -0.141064
            82    0       2.922180      5.719800      7.472370     0.527232   -2.078010    4.204239
            83    0       1.753120      3.389010      6.514850     0.132342    0.842512   -0.932402
            84    0       3.689150     10.067400      5.934240    -0.079582   -2.342083   -1.822246
            85    0       0.164880      1.410160      3.764370    -2.025834   -1.975919   -0.188401
            86    0       7.963760      2.778330      7.610210    -0.363124   -0.773522   -1.240554
            87    0       4.604560      8.854160      3.944770     0.902035   -0.127934   -0.238646
            88    0       9.478450      2.408340      0.366490     0.764688   -2.918738    0.722267
            89    0       6.887400      2.034810      9.708920     0.118456    4.642961   -1.995091
            90    0       3.848190      2.453620      5.434960    -1.986698    2.153263   -2.442839
            91    0       7.909120      3.392440      1.321020    -1.017203    0.043305    1.659706
            92    0       5.571720      1.158980      5.429050    -1.164033    4.358852   -3.229707
            93    0       4.049510      9.958730      1.392230     2.221374   -0.358762    0.203866
            94    0       6.590630      4.824680      2.730340     0.709008   -0.276517   -0.123062
            95    0       9.717990      0.285120      9.385830     3.872681   -1.725659   -4.284047
            96    0       1.186840      3.398090      4.192450     1.620479   -2.132901   -1.894247
            97    0       6.606170      9.267790      1.358300    -0.801600   -1.192315    3.034085
            98    0       5.271550      6.301710      3.816810     0.168606    2.741013   -1.066570
            99    0       8.257620      4.223680      9.081860    -1.611649   -1.178547    1.837482
           100    0       0.416380      9.261340      3.362370     0.180093    0.196018   -1.613519
 Energy
       -393.330279140000
 PlusStress:  xx          yy          zz          yz          xz          xy
       519.78524   512.28491   499.72394   -16.85366    13.78245   -15.45879
 Feature   EFS_by	VASP
END_CFG

