<?xml version="1.0" encoding="ISO-8859-1"?>
<modeling>
 <generator>
  <i name="program" type="string">vasp </i>
  <i name="version" type="string">5.4.4.18Apr17-6-g9f103f2a35  </i>
  <i name="subversion" type="string">(build Sep 16 2020 16:20:45) complex            parallel </i>
  <i name="platform" type="string">LinuxIFC </i>
  <i name="date" type="string">2021 08 09 </i>
  <i name="time" type="string">15:41:14 </i>
 </generator>
 <incar>
  <i type="string" name="PREC">normal</i>
  <i type="string" name="ALGO"> Very Fast</i>
  <i type="int" name="ISPIN">     2</i>
  <i type="int" name="NELM">    60</i>
  <i type="int" name="NELMIN">     4</i>
  <i name="EDIFF">      0.00001000</i>
  <i type="int" name="ISYM">     0</i>
  <i type="string" name="LREAL"> auto</i>
  <i type="int" name="ISMEAR">     0</i>
  <i name="SIGMA">      0.05000000</i>
  <i type="logical" name="LWAVE"> F  </i>
  <i type="logical" name="LCHARG"> F  </i>
  <v type="int" name="KPOINT_BSE">    -1     0     0     0</v>
  <i type="int" name="NELM">    60</i>
 </incar>
 <structure name="primitive_cell" >
  <crystal>
   <varray name="basis" >
    <v>      10.21149500       0.00000000       0.00000000 </v>
    <v>       0.00000000      10.21149500       0.00000000 </v>
    <v>       0.00000000       0.00000000      10.21149500 </v>
   </varray>
   <i name="volume">   1064.79986425 </i>
   <varray name="rec_basis" >
    <v>       0.09792885       0.00000000       0.00000000 </v>
    <v>       0.00000000       0.09792885       0.00000000 </v>
    <v>       0.00000000       0.00000000       0.09792885 </v>
   </varray>
  </crystal>
  <varray name="positions" >
   <v>      -0.14060500       0.40404700       0.35324200 </v>
   <v>      -0.18359300       0.34343800      -0.45396800 </v>
   <v>      -0.18277000       0.19210000       0.32661400 </v>
   <v>      -0.13860300      -0.39683700       0.24331800 </v>
   <v>      -0.26757300      -0.44188600       0.46886400 </v>
   <v>       0.03890480       0.43006600       0.20726500 </v>
   <v>      -0.35458700       0.47247500       0.26737900 </v>
   <v>       0.01974790       0.47979700      -0.47208100 </v>
   <v>      -0.22546900       0.33221800       0.12936600 </v>
   <v>       0.11622600       0.33277100       0.41056200 </v>
   <v>      -0.38393900       0.25684900       0.34030300 </v>
   <v>      -0.00473700       0.25683800      -0.44303400 </v>
   <v>      -0.08982800      -0.30962600       0.44069800 </v>
   <v>       0.01614630       0.13809500       0.36864000 </v>
   <v>      -0.22537000      -0.45921600       0.06495080 </v>
   <v>       0.10098700       0.22480400       0.19532700 </v>
   <v>      -0.23370100       0.12070900      -0.45826300 </v>
   <v>       0.09121780      -0.32997100       0.28464600 </v>
   <v>      -0.42003400       0.32921300      -0.42630600 </v>
   <v>      -0.07178600       0.23584600       0.03588960 </v>
   <v>       0.22643400       0.47998300       0.32616700 </v>
   <v>      -0.30177200       0.47807500      -0.31088600 </v>
   <v>      -0.09547900      -0.35465100      -0.35456800 </v>
   <v>      -0.35401700      -0.31603400       0.20046900 </v>
   <v>      -0.03709600       0.42808400      -0.27226000 </v>
   <v>       0.11808200      -0.33591000       0.49185600 </v>
   <v>      -0.45154300       0.33419900       0.11754800 </v>
   <v>       0.45722100       0.40991000       0.39055900 </v>
   <v>      -0.48376300      -0.38288100       0.37377600 </v>
   <v>      -0.29586200      -0.22397200       0.40558000 </v>
   <v>      -0.07574100       0.03382240       0.17733000 </v>
   <v>      -0.22011800       0.27207900      -0.25474100 </v>
   <v>      -0.38797300       0.12499000       0.15473000 </v>
   <v>       0.17168100       0.33188200      -0.36200800 </v>
   <v>       0.01389880       0.40377600      -0.04717100 </v>
   <v>       0.00185580      -0.29176500       0.08014630 </v>
   <v>      -0.01671500       0.07462830      -0.39139100 </v>
   <v>      -0.49424900      -0.45838900      -0.43076800 </v>
   <v>      -0.31058900      -0.29240000      -0.36939800 </v>
   <v>      -0.32027400      -0.00606100       0.34535100 </v>
   <v>       0.20774400      -0.41678800       0.13529100 </v>
   <v>      -0.12751200      -0.16719900       0.21814000 </v>
   <v>       0.21555500       0.35046500       0.06543610 </v>
   <v>      -0.45436800       0.11349800      -0.46833900 </v>
   <v>      -0.19134100       0.41362000      -0.11062400 </v>
   <v>       0.29442200       0.47056600      -0.47414600 </v>
   <v>       0.18277500       0.08025360       0.47931900 </v>
   <v>      -0.14079600      -0.06473100       0.43671400 </v>
   <v>       0.31643500       0.29448600       0.26106700 </v>
   <v>      -0.32552500       0.19926700      -0.04921700 </v>
   <v>      -0.21199700       0.04645030       0.02609340 </v>
   <v>      -0.07371700      -0.40631300      -0.09378900 </v>
   <v>      -0.44758200      -0.37089600       0.02464250 </v>
   <v>       0.39368400      -0.48853200       0.18201200 </v>
   <v>       0.00128000       0.22532300      -0.18651600 </v>
   <v>       0.11066200      -0.30396600      -0.30482000 </v>
   <v>       0.45164800       0.08359360       0.35712500 </v>
   <v>      -0.41636800       0.40489100      -0.09571600 </v>
   <v>       0.30313800      -0.31090600       0.33500700 </v>
   <v>      -0.42414900       0.16891000      -0.26831100 </v>
   <v>       0.04077520      -0.09304800       0.32927300 </v>
   <v>       0.23944100       0.04591200       0.26397800 </v>
   <v>       0.37684900       0.24028000      -0.46776100 </v>
   <v>      -0.22682900      -0.19217200      -0.00041900 </v>
   <v>       0.15134600      -0.41220400      -0.07100700 </v>
   <v>       0.47630100      -0.23916800       0.18971800 </v>
   <v>      -0.22727500       0.06610930      -0.22089700 </v>
   <v>      -0.29493200      -0.39021600      -0.13392800 </v>
   <v>       0.15938800       0.17600900      -0.05125400 </v>
   <v>      -0.36768800      -0.03185200      -0.38904800 </v>
   <v>       0.41896200       0.19967600       0.08034070 </v>
   <v>      -0.16549400      -0.10980600      -0.37501200 </v>
   <v>       0.10145100      -0.02298300       0.07207950 </v>
   <v>       0.07809260      -0.11597400      -0.43477500 </v>
   <v>      -0.49020700      -0.20093400      -0.41440600 </v>
   <v>       0.43176100       0.35754400      -0.25915200 </v>
   <v>      -0.04832800       0.02792180      -0.08085600 </v>
   <v>      -0.35306500      -0.09241600       0.13301700 </v>
   <v>       0.26728700       0.14678900      -0.31848100 </v>
   <v>       0.22561500      -0.17268900       0.16840900 </v>
   <v>       0.33116000      -0.31795500      -0.42633900 </v>
   <v>       0.28616600      -0.43986700      -0.26823900 </v>
   <v>       0.22394400      -0.12940600       0.41427700 </v>
   <v>       0.21051400       0.36308700      -0.16455000 </v>
   <v>      -0.11061100      -0.20687800      -0.19257500 </v>
   <v>      -0.43189600       0.02202710      -0.03339900 </v>
   <v>       0.45091900      -0.13292200       0.38630700 </v>
   <v>      -0.49343700      -0.32477900      -0.21395800 </v>
   <v>       0.36252600       0.44639100      -0.04158900 </v>
   <v>       0.13305300      -0.02850100      -0.24179000 </v>
   <v>       0.12005900      -0.18913000      -0.08694600 </v>
   <v>       0.35800800      -0.32978700       0.01109940 </v>
   <v>       0.39656400      -0.02475300       0.13633900 </v>
   <v>       0.36127400      -0.01411100      -0.41886700 </v>
   <v>      -0.34824600      -0.13848900      -0.15745500 </v>
   <v>       0.28716500       0.00496000      -0.05292100 </v>
   <v>       0.39555700       0.18070100      -0.14364700 </v>
   <v>       0.29282000      -0.18086500      -0.25644200 </v>
   <v>       0.46352500      -0.02780600      -0.22866000 </v>
   <v>       0.44888600      -0.16178300      -0.06356300 </v>
  </varray>
 </structure>
 <varray name="primitive_index" >
  <v type="int" >        1 </v>
  <v type="int" >       30 </v>
  <v type="int" >       70 </v>
  <v type="int" >        9 </v>
  <v type="int" >       36 </v>
  <v type="int" >       35 </v>
  <v type="int" >       94 </v>
  <v type="int" >       73 </v>
  <v type="int" >       91 </v>
  <v type="int" >       96 </v>
  <v type="int" >       57 </v>
  <v type="int" >       68 </v>
  <v type="int" >       58 </v>
  <v type="int" >       85 </v>
  <v type="int" >       38 </v>
  <v type="int" >       11 </v>
  <v type="int" >       72 </v>
  <v type="int" >       18 </v>
  <v type="int" >       20 </v>
  <v type="int" >       88 </v>
  <v type="int" >       44 </v>
  <v type="int" >       74 </v>
  <v type="int" >       13 </v>
  <v type="int" >       33 </v>
  <v type="int" >       81 </v>
  <v type="int" >       52 </v>
  <v type="int" >       26 </v>
  <v type="int" >       43 </v>
  <v type="int" >       98 </v>
  <v type="int" >       42 </v>
  <v type="int" >       31 </v>
  <v type="int" >       86 </v>
  <v type="int" >       64 </v>
  <v type="int" >       83 </v>
  <v type="int" >       41 </v>
  <v type="int" >       39 </v>
  <v type="int" >        4 </v>
  <v type="int" >       63 </v>
  <v type="int" >        7 </v>
  <v type="int" >       25 </v>
  <v type="int" >       32 </v>
  <v type="int" >       19 </v>
  <v type="int" >       23 </v>
  <v type="int" >       92 </v>
  <v type="int" >       99 </v>
  <v type="int" >       76 </v>
  <v type="int" >       53 </v>
  <v type="int" >       47 </v>
  <v type="int" >       60 </v>
  <v type="int" >       89 </v>
  <v type="int" >       80 </v>
  <v type="int" >       78 </v>
  <v type="int" >        8 </v>
  <v type="int" >       66 </v>
  <v type="int" >       28 </v>
  <v type="int" >       69 </v>
  <v type="int" >        2 </v>
  <v type="int" >       21 </v>
  <v type="int" >       12 </v>
  <v type="int" >       56 </v>
  <v type="int" >      100 </v>
  <v type="int" >       14 </v>
  <v type="int" >       90 </v>
  <v type="int" >       75 </v>
  <v type="int" >       16 </v>
  <v type="int" >       51 </v>
  <v type="int" >       48 </v>
  <v type="int" >       40 </v>
  <v type="int" >       54 </v>
  <v type="int" >        5 </v>
  <v type="int" >       55 </v>
  <v type="int" >       15 </v>
  <v type="int" >       34 </v>
  <v type="int" >       22 </v>
  <v type="int" >       45 </v>
  <v type="int" >       71 </v>
  <v type="int" >       95 </v>
  <v type="int" >       97 </v>
  <v type="int" >       37 </v>
  <v type="int" >       77 </v>
  <v type="int" >       10 </v>
  <v type="int" >       82 </v>
  <v type="int" >       17 </v>
  <v type="int" >       67 </v>
  <v type="int" >        3 </v>
  <v type="int" >       24 </v>
  <v type="int" >       87 </v>
  <v type="int" >       65 </v>
  <v type="int" >       79 </v>
  <v type="int" >       50 </v>
  <v type="int" >       27 </v>
  <v type="int" >       59 </v>
  <v type="int" >       93 </v>
  <v type="int" >       84 </v>
  <v type="int" >       61 </v>
  <v type="int" >       29 </v>
  <v type="int" >       49 </v>
  <v type="int" >        6 </v>
  <v type="int" >       46 </v>
  <v type="int" >       62 </v>
 </varray>
 <kpoints>
  <generation param="Gamma">
   <v type="int" name="divisions">       1        1        1 </v>
   <v name="usershift">      0.00000000       0.00000000       0.00000000 </v>
   <v name="genvec1">      1.00000000       0.00000000       0.00000000 </v>
   <v name="genvec2">      0.00000000       1.00000000       0.00000000 </v>
   <v name="genvec3">      0.00000000       0.00000000       1.00000000 </v>
   <v name="shift">      0.00000000       0.00000000       0.00000000 </v>
  </generation>
  <varray name="kpointlist" >
   <v>       0.00000000       0.00000000       0.00000000 </v>
  </varray>
  <varray name="weights" >
   <v>       1.00000000 </v>
  </varray>
 </kpoints>
 <parameters>
  <separator name="general" >
   <i type="string" name="SYSTEM">unknown system</i>
   <i type="logical" name="LCOMPAT"> F  </i>
  </separator>
  <separator name="electronic" >
   <i type="string" name="PREC">normal</i>
   <i name="ENMAX">    245.34500000</i>
   <i name="ENAUG">    322.06900000</i>
   <i name="EDIFF">      0.00001000</i>
   <i type="int" name="IALGO">    48</i>
   <i type="int" name="IWAVPR">    10</i>
   <i type="int" name="NBANDS">   304</i>
   <i name="NELECT">    400.00000000</i>
   <i type="int" name="TURBO">     0</i>
   <i type="int" name="IRESTART">     0</i>
   <i type="int" name="NREBOOT">     0</i>
   <i type="int" name="NMIN">     0</i>
   <i name="EREF">      0.00000000</i>
   <separator name="electronic smearing" >
    <i type="int" name="ISMEAR">     0</i>
    <i name="SIGMA">      0.05000000</i>
    <i name="KSPACING">      0.50000000</i>
    <i type="logical" name="KGAMMA"> T  </i>
   </separator>
   <separator name="electronic projectors" >
    <i type="logical" name="LREAL"> T  </i>
    <v name="ROPT">     -0.00050000</v>
    <i type="int" name="LMAXPAW">  -100</i>
    <i type="int" name="LMAXMIX">     2</i>
    <i type="logical" name="NLSPLINE"> F  </i>
   </separator>
   <separator name="electronic startup" >
    <i type="int" name="ISTART">     0</i>
    <i type="int" name="ICHARG">     2</i>
    <i type="int" name="INIWAV">     1</i>
   </separator>
   <separator name="electronic spin" >
    <i type="int" name="ISPIN">     2</i>
    <i type="logical" name="LNONCOLLINEAR"> F  </i>
    <v name="MAGMOM">      1.00000000      1.00000000      1.00000000      1.00000000      1.00000000      1.00000000      1.00000000      1.00000000      1.00000000      1.00000000      1.00000000      1.00000000      1.00000000      1.00000000      1.00000000      1.00000000      1.00000000      1.00000000      1.00000000      1.00000000
      1.00000000      1.00000000      1.00000000      1.00000000      1.00000000      1.00000000      1.00000000      1.00000000      1.00000000      1.00000000      1.00000000      1.00000000      1.00000000      1.00000000      1.00000000      1.00000000      1.00000000      1.00000000      1.00000000      1.00000000
      1.00000000      1.00000000      1.00000000      1.00000000      1.00000000      1.00000000      1.00000000      1.00000000      1.00000000      1.00000000      1.00000000      1.00000000      1.00000000      1.00000000      1.00000000      1.00000000      1.00000000      1.00000000      1.00000000      1.00000000
      1.00000000      1.00000000      1.00000000      1.00000000      1.00000000      1.00000000      1.00000000      1.00000000      1.00000000      1.00000000      1.00000000      1.00000000      1.00000000      1.00000000      1.00000000      1.00000000      1.00000000      1.00000000      1.00000000      1.00000000
      1.00000000      1.00000000      1.00000000      1.00000000      1.00000000      1.00000000      1.00000000      1.00000000      1.00000000      1.00000000      1.00000000      1.00000000      1.00000000      1.00000000      1.00000000      1.00000000      1.00000000      1.00000000      1.00000000      1.00000000
</v>
    <i name="NUPDOWN">     -1.00000000</i>
    <i type="logical" name="LSORBIT"> F  </i>
    <v name="SAXIS">      0.00000000      0.00000000      1.00000000</v>
    <i type="logical" name="LSPIRAL"> F  </i>
    <v name="QSPIRAL">      0.00000000      0.00000000      0.00000000</v>
    <i type="logical" name="LZEROZ"> F  </i>
   </separator>
   <separator name="electronic exchange-correlation" >
    <i type="logical" name="LASPH"> F  </i>
    <i type="logical" name="LMETAGGA"> F  </i>
   </separator>
   <separator name="electronic convergence" >
    <i type="int" name="NELM">    60</i>
    <i type="int" name="NELMDL">   -12</i>
    <i type="int" name="NELMIN">     4</i>
    <i name="ENINI">    245.34500000</i>
    <separator name="electronic convergence detail" >
     <i type="logical" name="LDIAG"> T  </i>
     <i type="logical" name="LSUBROT"> F  </i>
     <i name="WEIMIN">      0.00000000</i>
     <i name="EBREAK">      0.00000001</i>
     <i name="DEPER">      0.30000000</i>
     <i type="int" name="NRMM">     4</i>
     <i name="TIME">      0.40000000</i>
    </separator>
   </separator>
   <separator name="electronic mixer" >
    <i name="AMIX">      0.40000000</i>
    <i name="BMIX">      1.00000000</i>
    <i name="AMIN">      0.10000000</i>
    <i name="AMIX_MAG">      1.60000000</i>
    <i name="BMIX_MAG">      1.00000000</i>
    <separator name="electronic mixer details" >
     <i type="int" name="IMIX">     4</i>
     <i type="logical" name="MIXFIRST"> F  </i>
     <i type="int" name="MAXMIX">   -45</i>
     <i name="WC">    100.00000000</i>
     <i type="int" name="INIMIX">     1</i>
     <i type="int" name="MIXPRE">     1</i>
     <i type="int" name="MREMOVE">     5</i>
    </separator>
   </separator>
   <separator name="electronic dipolcorrection" >
    <i type="logical" name="LDIPOL"> F  </i>
    <i type="logical" name="LMONO"> F  </i>
    <i type="int" name="IDIPOL">     0</i>
    <i name="EPSILON">      1.00000000</i>
    <v name="DIPOL">   -100.00000000   -100.00000000   -100.00000000</v>
    <i name="EFIELD">      0.00000000</i>
   </separator>
  </separator>
  <separator name="grids" >
   <i type="int" name="NGX">    40</i>
   <i type="int" name="NGY">    40</i>
   <i type="int" name="NGZ">    40</i>
   <i type="int" name="NGXF">    80</i>
   <i type="int" name="NGYF">    80</i>
   <i type="int" name="NGZF">    80</i>
   <i type="logical" name="ADDGRID"> F  </i>
  </separator>
  <separator name="ionic" >
   <i type="int" name="NSW">     0</i>
   <i type="int" name="IBRION">    -1</i>
   <i type="int" name="MDALGO">     0</i>
   <i type="int" name="ISIF">     2</i>
   <i name="PSTRESS">      0.00000000</i>
   <i name="EDIFFG">      0.00010000</i>
   <i type="int" name="NFREE">     0</i>
   <i name="POTIM">      0.50000000</i>
   <i name="SMASS">     -3.00000000</i>
   <i name="SCALEE">      1.00000000</i>
  </separator>
  <separator name="ionic md" >
   <i name="TEBEG">      0.00010000</i>
   <i name="TEEND">      0.00010000</i>
   <i type="int" name="NBLOCK">     1</i>
   <i type="int" name="KBLOCK">     1</i>
   <i type="int" name="NPACO">   256</i>
   <i name="APACO">     16.00000000</i>
  </separator>
  <separator name="symmetry" >
   <i type="int" name="ISYM">     0</i>
   <i name="SYMPREC">      0.00001000</i>
  </separator>
  <separator name="dos" >
   <i type="int" name="LORBIT">     0</i>
   <v name="RWIGS">     -1.00000000</v>
   <i type="int" name="NEDOS">   301</i>
   <i name="EMIN">     10.00000000</i>
   <i name="EMAX">    -10.00000000</i>
   <i name="EFERMI">      0.00000000</i>
  </separator>
  <separator name="writing" >
   <i type="int" name="NWRITE">     2</i>
   <i type="logical" name="LWAVE"> F  </i>
   <i type="logical" name="LDOWNSAMPLE"> F  </i>
   <i type="logical" name="LCHARG"> F  </i>
   <i type="logical" name="LPARD"> F  </i>
   <i type="logical" name="LVTOT"> F  </i>
   <i type="logical" name="LVHAR"> F  </i>
   <i type="logical" name="LELF"> F  </i>
   <i type="logical" name="LOPTICS"> F  </i>
   <v name="STM">      0.00000000      0.00000000      0.00000000      0.00000000      0.00000000      0.00000000      0.00000000</v>
  </separator>
  <separator name="performance" >
   <i type="int" name="NPAR">    16</i>
   <i type="int" name="NSIM">     4</i>
   <i type="int" name="NBLK">    -1</i>
   <i type="logical" name="LPLANE"> T  </i>
   <i type="logical" name="LSCALAPACK"> T  </i>
   <i type="logical" name="LSCAAWARE"> F  </i>
   <i type="logical" name="LSCALU"> F  </i>
   <i type="logical" name="LASYNC"> F  </i>
   <i type="logical" name="LORBITALREAL"> F  </i>
  </separator>
  <separator name="miscellaneous" >
   <i type="int" name="IDIOT">     3</i>
   <i type="int" name="ISPECIAL">     0</i>
   <i type="logical" name="LMUSIC"> F  </i>
   <v name="POMASS">     28.08500000</v>
   <v name="DARWINR">      0.00000000</v>
   <v name="DARWINV">      1.00000000</v>
   <i type="logical" name="LCORR"> T  </i>
  </separator>
  <i type="logical" name="GGA_COMPAT"> T  </i>
  <i type="logical" name="LBERRY"> F  </i>
  <i type="int" name="ICORELEVEL">     0</i>
  <i type="logical" name="LDAU"> F  </i>
  <i type="int" name="I_CONSTRAINED_M">     0</i>
  <separator name="electronic exchange-correlation" >
   <i type="string" name="GGA">--</i>
   <i type="int" name="VOSKOWN">     0</i>
   <i type="logical" name="LHFCALC"> F  </i>
   <i type="string" name="PRECFOCK"></i>
   <i type="logical" name="LSYMGRAD"> F  </i>
   <i type="logical" name="LHFONE"> F  </i>
   <i type="logical" name="LRHFCALC"> F  </i>
   <i type="logical" name="LTHOMAS"> F  </i>
   <i type="logical" name="LMODELHF"> F  </i>
   <i name="ENCUT4O">     -1.00000000</i>
   <i type="int" name="EXXOEP">     0</i>
   <i type="int" name="FOURORBIT">     0</i>
   <i name="AEXX">      0.00000000</i>
   <i name="HFALPHA">      0.00000000</i>
   <i name="MCALPHA">      0.00000000</i>
   <i name="ALDAX">      1.00000000</i>
   <i name="AGGAX">      1.00000000</i>
   <i name="ALDAC">      1.00000000</i>
   <i name="AGGAC">      1.00000000</i>
   <i type="int" name="NKREDX">     1</i>
   <i type="int" name="NKREDY">     1</i>
   <i type="int" name="NKREDZ">     1</i>
   <i type="logical" name="SHIFTRED"> F  </i>
   <i type="logical" name="ODDONLY"> F  </i>
   <i type="logical" name="EVENONLY"> F  </i>
   <i type="int" name="LMAXFOCK">     0</i>
   <i type="int" name="NMAXFOCKAE">     0</i>
   <i type="logical" name="LFOCKAEDFT"> F  </i>
   <i name="HFSCREEN">      0.00000000</i>
   <i name="HFSCREENC">      0.00000000</i>
   <i type="int" name="NBANDSGWLOW">     0</i>
  </separator>
  <separator name="vdW DFT" >
   <i type="logical" name="LUSE_VDW"> F  </i>
   <i name="Zab_VDW">     -0.84910000</i>
   <i name="PARAM1">      0.12340000</i>
   <i name="PARAM2">      1.00000000</i>
   <i name="PARAM3">      0.00000000</i>
  </separator>
  <separator name="model GW" >
   <i type="int" name="MODEL_GW">     0</i>
   <i name="MODEL_EPS0">      6.38879919</i>
   <i name="MODEL_ALPHA">      1.00000000</i>
  </separator>
  <separator name="linear response parameters" >
   <i type="logical" name="LEPSILON"> F  </i>
   <i type="logical" name="LRPA"> F  </i>
   <i type="logical" name="LNABLA"> F  </i>
   <i type="logical" name="LVEL"> F  </i>
   <i type="int" name="KINTER">     0</i>
   <i name="CSHIFT">      0.10000000</i>
   <i name="OMEGAMAX">     -1.00000000</i>
   <i name="DEG_THRESHOLD">      0.00200000</i>
   <i name="RTIME">     -0.10000000</i>
   <i name="WPLASMAI">      0.00000000</i>
   <v name="DFIELD">      0.00000000      0.00000000      0.00000000</v>
   <v name="WPLASMA">      0.00000000      0.00000000      0.00000000      0.00000000      0.00000000      0.00000000      0.00000000      0.00000000      0.00000000</v>
  </separator>
  <separator name="orbital magnetization" >
   <i type="logical" name="NUCIND"> F  </i>
   <v name="MAGPOS">      0.00000000      0.00000000      0.00000000</v>
   <i type="logical" name="LNICSALL"> T  </i>
   <i type="logical" name="ORBITALMAG"> F  </i>
   <i type="logical" name="LMAGBLOCH"> F  </i>
   <i type="logical" name="LCHIMAG"> F  </i>
   <i type="logical" name="LGAUGE"> T  </i>
   <i type="int" name="MAGATOM">     0</i>
   <v name="MAGDIPOL">      0.00000000      0.00000000      0.00000000</v>
   <v name="AVECCONST">      0.00000000      0.00000000      0.00000000</v>
  </separator>
  <separator name="response functions" >
   <i type="logical" name="LADDER"> F  </i>
   <i type="logical" name="LRPAFORCE"> F  </i>
   <i type="logical" name="LFXC"> F  </i>
   <i type="logical" name="LHARTREE"> T  </i>
   <i type="int" name="IBSE">     0</i>
   <v type="int" name="KPOINT">    -1     0     0     0</v>
   <i type="logical" name="LTCTE"> F  </i>
   <i type="logical" name="LTETE"> F  </i>
   <i type="logical" name="LTRIPLET"> F  </i>
   <i type="logical" name="LFXCEPS"> F  </i>
   <i type="logical" name="LFXHEG"> F  </i>
   <i type="int" name="NATURALO">     2</i>
   <i type="logical" name="L2ORDER"> F  </i>
   <i type="logical" name="LMP2LT"> F  </i>
   <i type="logical" name="LUSEW"> F  </i>
   <i name="ENCUTGW">     -2.00000000</i>
   <i name="ENCUTGWSOFT">     -2.00000000</i>
   <i name="ENCUTLF">     -1.00000000</i>
   <i type="int" name="LMAXMP2">    -1</i>
   <i name="SCISSOR">      0.00000000</i>
   <i type="int" name="NOMEGA">     0</i>
   <i type="int" name="NOMEGAR">     0</i>
   <i type="int" name="NBANDSGW">    -1</i>
   <i type="int" name="NBANDSO">    -1</i>
   <i type="int" name="NBANDSV">    -1</i>
   <i type="int" name="NELM">    60</i>
   <i type="int" name="NELMHF">     1</i>
   <i type="int" name="DIM">     3</i>
   <i type="int" name="ANTIRES">     0</i>
   <i name="OMEGAMAX">    -30.00000000</i>
   <i name="OMEGAMIN">    -30.00000000</i>
   <i name="OMEGATL">   -200.00000000</i>
   <i type="int" name="OMEGAGRID">   140</i>
   <i name="CSHIFT">     -0.10000000</i>
   <i type="logical" name="SELFENERGY"> F  </i>
   <i type="logical" name="LSPECTRAL"> F  </i>
   <i type="logical" name="LSPECTRALGW"> F  </i>
   <i type="logical" name="LSINGLES"> F  </i>
   <i type="logical" name="LFERMIGW"> F  </i>
   <i type="logical" name="ODDONLYGW"> F  </i>
   <i type="logical" name="EVENONLYGW"> F  </i>
   <i type="int" name="NKREDLFX">     1</i>
   <i type="int" name="NKREDLFY">     1</i>
   <i type="int" name="NKREDLFZ">     1</i>
   <i type="int" name="MAXMEM">  2800</i>
   <i type="int" name="TELESCOPE">     0</i>
   <i type="int" name="TAUPAR">     1</i>
   <i type="int" name="OMEGAPAR">    -1</i>
   <i name="LAMBDA">      1.00000000</i>
  </separator>
  <separator name="External order field" >
   <i name="OFIELD_KAPPA">      0.00000000</i>
   <v name="OFIELD_K">      0.00000000      0.00000000      0.00000000</v>
   <i name="OFIELD_Q6_NEAR">      0.00000000</i>
   <i name="OFIELD_Q6_FAR">      0.00000000</i>
   <i name="OFIELD_A">      0.00000000</i>
  </separator>
 </parameters>
 <atominfo>
  <atoms>     100 </atoms>
  <types>       1 </types>
  <array name="atoms" >
   <dimension dim="1">ion</dimension>
   <field type="string">element</field>
   <field type="int">atomtype</field>
   <set>
    <rc><c>Si</c><c>   1</c></rc>
    <rc><c>Si</c><c>   1</c></rc>
    <rc><c>Si</c><c>   1</c></rc>
    <rc><c>Si</c><c>   1</c></rc>
    <rc><c>Si</c><c>   1</c></rc>
    <rc><c>Si</c><c>   1</c></rc>
    <rc><c>Si</c><c>   1</c></rc>
    <rc><c>Si</c><c>   1</c></rc>
    <rc><c>Si</c><c>   1</c></rc>
    <rc><c>Si</c><c>   1</c></rc>
    <rc><c>Si</c><c>   1</c></rc>
    <rc><c>Si</c><c>   1</c></rc>
    <rc><c>Si</c><c>   1</c></rc>
    <rc><c>Si</c><c>   1</c></rc>
    <rc><c>Si</c><c>   1</c></rc>
    <rc><c>Si</c><c>   1</c></rc>
    <rc><c>Si</c><c>   1</c></rc>
    <rc><c>Si</c><c>   1</c></rc>
    <rc><c>Si</c><c>   1</c></rc>
    <rc><c>Si</c><c>   1</c></rc>
    <rc><c>Si</c><c>   1</c></rc>
    <rc><c>Si</c><c>   1</c></rc>
    <rc><c>Si</c><c>   1</c></rc>
    <rc><c>Si</c><c>   1</c></rc>
    <rc><c>Si</c><c>   1</c></rc>
    <rc><c>Si</c><c>   1</c></rc>
    <rc><c>Si</c><c>   1</c></rc>
    <rc><c>Si</c><c>   1</c></rc>
    <rc><c>Si</c><c>   1</c></rc>
    <rc><c>Si</c><c>   1</c></rc>
    <rc><c>Si</c><c>   1</c></rc>
    <rc><c>Si</c><c>   1</c></rc>
    <rc><c>Si</c><c>   1</c></rc>
    <rc><c>Si</c><c>   1</c></rc>
    <rc><c>Si</c><c>   1</c></rc>
    <rc><c>Si</c><c>   1</c></rc>
    <rc><c>Si</c><c>   1</c></rc>
    <rc><c>Si</c><c>   1</c></rc>
    <rc><c>Si</c><c>   1</c></rc>
    <rc><c>Si</c><c>   1</c></rc>
    <rc><c>Si</c><c>   1</c></rc>
    <rc><c>Si</c><c>   1</c></rc>
    <rc><c>Si</c><c>   1</c></rc>
    <rc><c>Si</c><c>   1</c></rc>
    <rc><c>Si</c><c>   1</c></rc>
    <rc><c>Si</c><c>   1</c></rc>
    <rc><c>Si</c><c>   1</c></rc>
    <rc><c>Si</c><c>   1</c></rc>
    <rc><c>Si</c><c>   1</c></rc>
    <rc><c>Si</c><c>   1</c></rc>
    <rc><c>Si</c><c>   1</c></rc>
    <rc><c>Si</c><c>   1</c></rc>
    <rc><c>Si</c><c>   1</c></rc>
    <rc><c>Si</c><c>   1</c></rc>
    <rc><c>Si</c><c>   1</c></rc>
    <rc><c>Si</c><c>   1</c></rc>
    <rc><c>Si</c><c>   1</c></rc>
    <rc><c>Si</c><c>   1</c></rc>
    <rc><c>Si</c><c>   1</c></rc>
    <rc><c>Si</c><c>   1</c></rc>
    <rc><c>Si</c><c>   1</c></rc>
    <rc><c>Si</c><c>   1</c></rc>
    <rc><c>Si</c><c>   1</c></rc>
    <rc><c>Si</c><c>   1</c></rc>
    <rc><c>Si</c><c>   1</c></rc>
    <rc><c>Si</c><c>   1</c></rc>
    <rc><c>Si</c><c>   1</c></rc>
    <rc><c>Si</c><c>   1</c></rc>
    <rc><c>Si</c><c>   1</c></rc>
    <rc><c>Si</c><c>   1</c></rc>
    <rc><c>Si</c><c>   1</c></rc>
    <rc><c>Si</c><c>   1</c></rc>
    <rc><c>Si</c><c>   1</c></rc>
    <rc><c>Si</c><c>   1</c></rc>
    <rc><c>Si</c><c>   1</c></rc>
    <rc><c>Si</c><c>   1</c></rc>
    <rc><c>Si</c><c>   1</c></rc>
    <rc><c>Si</c><c>   1</c></rc>
    <rc><c>Si</c><c>   1</c></rc>
    <rc><c>Si</c><c>   1</c></rc>
    <rc><c>Si</c><c>   1</c></rc>
    <rc><c>Si</c><c>   1</c></rc>
    <rc><c>Si</c><c>   1</c></rc>
    <rc><c>Si</c><c>   1</c></rc>
    <rc><c>Si</c><c>   1</c></rc>
    <rc><c>Si</c><c>   1</c></rc>
    <rc><c>Si</c><c>   1</c></rc>
    <rc><c>Si</c><c>   1</c></rc>
    <rc><c>Si</c><c>   1</c></rc>
    <rc><c>Si</c><c>   1</c></rc>
    <rc><c>Si</c><c>   1</c></rc>
    <rc><c>Si</c><c>   1</c></rc>
    <rc><c>Si</c><c>   1</c></rc>
    <rc><c>Si</c><c>   1</c></rc>
    <rc><c>Si</c><c>   1</c></rc>
    <rc><c>Si</c><c>   1</c></rc>
    <rc><c>Si</c><c>   1</c></rc>
    <rc><c>Si</c><c>   1</c></rc>
    <rc><c>Si</c><c>   1</c></rc>
    <rc><c>Si</c><c>   1</c></rc>
   </set>
  </array>
  <array name="atomtypes" >
   <dimension dim="1">type</dimension>
   <field type="int">atomspertype</field>
   <field type="string">element</field>
   <field>mass</field>
   <field>valence</field>
   <field type="string">pseudopotential</field>
   <set>
    <rc><c> 100</c><c>Si</c><c>     28.08500000</c><c>      4.00000000</c><c>  PAW_PBE Si 05Jan2001                  </c></rc>
   </set>
  </array>
 </atominfo>
 <structure name="initialpos" >
  <crystal>
   <varray name="basis" >
    <v>      10.21149500       0.00000000       0.00000000 </v>
    <v>       0.00000000      10.21149500       0.00000000 </v>
    <v>       0.00000000       0.00000000      10.21149500 </v>
   </varray>
   <i name="volume">   1064.79986425 </i>
   <varray name="rec_basis" >
    <v>       0.09792885       0.00000000       0.00000000 </v>
    <v>       0.00000000       0.09792885       0.00000000 </v>
    <v>       0.00000000       0.00000000       0.09792885 </v>
   </varray>
  </crystal>
  <varray name="positions" >
   <v>       0.85939500       0.40404700       0.35324200 </v>
   <v>       0.45164800       0.08359360       0.35712500 </v>
   <v>       0.88938900       0.79312200       0.80742500 </v>
   <v>       0.98328500       0.07462830       0.60860900 </v>
   <v>       0.63231200       0.96814800       0.61095200 </v>
   <v>       0.29282000       0.81913500       0.74355800 </v>
   <v>       0.68941100       0.70760000       0.63060200 </v>
   <v>       0.55241800       0.62910400       0.02464250 </v>
   <v>       0.86139700       0.60316300       0.24331800 </v>
   <v>       0.33116000       0.68204500       0.57366100 </v>
   <v>       0.10098700       0.22480400       0.19532700 </v>
   <v>       0.30313800       0.68909400       0.33500700 </v>
   <v>       0.90452100       0.64534900       0.64543200 </v>
   <v>       0.23944100       0.04591200       0.26397800 </v>
   <v>       0.83450600       0.89019400       0.62498800 </v>
   <v>       0.15134600       0.58779600       0.92899300 </v>
   <v>       0.22394400       0.87059400       0.41427700 </v>
   <v>       0.09121780       0.67002900       0.28464600 </v>
   <v>       0.87248800       0.83280100       0.21814000 </v>
   <v>       0.57996600       0.32921300       0.57369400 </v>
   <v>       0.58363200       0.40489100       0.90428400 </v>
   <v>       0.07809260       0.88402600       0.56522500 </v>
   <v>       0.21555500       0.35046500       0.06543610 </v>
   <v>       0.56810400       0.02202710       0.96660100 </v>
   <v>       0.67972600       0.99393900       0.34535100 </v>
   <v>       0.54845700       0.33419900       0.11754800 </v>
   <v>       0.12005900       0.81087000       0.91305400 </v>
   <v>       0.00128000       0.22532300       0.81348400 </v>
   <v>       0.28716500       0.00496000       0.94707900 </v>
   <v>       0.81640700       0.34343800       0.54603200 </v>
   <v>       0.92425900       0.03382240       0.17733000 </v>
   <v>       0.20774400       0.58321200       0.13529100 </v>
   <v>       0.64598300       0.68396600       0.20046900 </v>
   <v>       0.10145100       0.97701700       0.07207950 </v>
   <v>       0.03890480       0.43006600       0.20726500 </v>
   <v>       0.73242700       0.55811400       0.46886400 </v>
   <v>       0.26728700       0.14678900       0.68151900 </v>
   <v>       0.77463000       0.54078400       0.06495080 </v>
   <v>       0.00185580       0.70823500       0.08014630 </v>
   <v>       0.70506800       0.60978400       0.86607200 </v>
   <v>       0.01389880       0.40377600       0.95282900 </v>
   <v>       0.70413800       0.77602800       0.40558000 </v>
   <v>       0.45722100       0.40991000       0.39055900 </v>
   <v>       0.22643400       0.47998300       0.32616700 </v>
   <v>       0.50979300       0.79906600       0.58559400 </v>
   <v>       0.46352500       0.97219400       0.77134000 </v>
   <v>       0.85920400       0.93526900       0.43671400 </v>
   <v>       0.77272500       0.06610930       0.77910300 </v>
   <v>       0.39555700       0.18070100       0.85635300 </v>
   <v>       0.13305300       0.97149900       0.75821000 </v>
   <v>       0.47630100       0.76083200       0.18971800 </v>
   <v>       0.11808200       0.66409000       0.49185600 </v>
   <v>       0.18277500       0.08025360       0.47931900 </v>
   <v>       0.15938800       0.17600900       0.94874600 </v>
   <v>       0.41896200       0.19967600       0.08034070 </v>
   <v>       0.57585100       0.16891000       0.73168900 </v>
   <v>       0.61606100       0.25684900       0.34030300 </v>
   <v>       0.91017200       0.69037400       0.44069800 </v>
   <v>       0.35800800       0.67021300       0.01109940 </v>
   <v>       0.31643500       0.29448600       0.26106700 </v>
   <v>       0.65175400       0.86151100       0.84254500 </v>
   <v>       0.44888600       0.83821700       0.93643700 </v>
   <v>       0.50575100       0.54161100       0.56923200 </v>
   <v>       0.61202700       0.12499000       0.15473000 </v>
   <v>       0.50656300       0.67522100       0.78604200 </v>
   <v>       0.39368400       0.51146800       0.18201200 </v>
   <v>       0.21051400       0.36308700       0.83545000 </v>
   <v>       0.99526300       0.25683800       0.55696600 </v>
   <v>       0.11066200       0.69603400       0.69518000 </v>
   <v>       0.81723000       0.19210000       0.32661400 </v>
   <v>       0.43176100       0.35754400       0.74084800 </v>
   <v>       0.76629900       0.12070900       0.54173700 </v>
   <v>       0.01974790       0.47979700       0.52791900 </v>
   <v>       0.69822800       0.47807500       0.68911400 </v>
   <v>       0.77317100       0.80782800       0.99958100 </v>
   <v>       0.29442200       0.47056600       0.52585400 </v>
   <v>       0.22561500       0.82731100       0.16840900 </v>
   <v>       0.92628300       0.59368700       0.90621100 </v>
   <v>       0.36252600       0.44639100       0.95841100 </v>
   <v>       0.78800300       0.04645030       0.02609340 </v>
   <v>       0.96290400       0.42808400       0.72774000 </v>
   <v>       0.28616600       0.56013300       0.73176100 </v>
   <v>       0.17168100       0.33188200       0.63799200 </v>
   <v>       0.36127400       0.98588900       0.58113300 </v>
   <v>       0.01614630       0.13809500       0.36864000 </v>
   <v>       0.77988200       0.27207900       0.74525900 </v>
   <v>       0.45091900       0.86707800       0.38630700 </v>
   <v>       0.92821400       0.23584600       0.03588960 </v>
   <v>       0.67447500       0.19926700       0.95078300 </v>
   <v>       0.37684900       0.24028000       0.53223900 </v>
   <v>       0.77453100       0.33221800       0.12936600 </v>
   <v>       0.54563200       0.11349800       0.53166100 </v>
   <v>       0.39656400       0.97524700       0.13633900 </v>
   <v>       0.64541300       0.47247500       0.26737900 </v>
   <v>       0.95167200       0.02792180       0.91914400 </v>
   <v>       0.11622600       0.33277100       0.41056200 </v>
   <v>       0.64693500       0.90758400       0.13301700 </v>
   <v>       0.51623700       0.61711900       0.37377600 </v>
   <v>       0.80865900       0.41362000       0.88937600 </v>
   <v>       0.04077520       0.90695200       0.32927300 </v>
  </varray>
 </structure>
 <calculation>
  <scstep>
   <time name="diag">    0.34    0.35</time>
   <time name="diis">    0.43    0.43</time>
   <time name="orth">    0.10    0.10</time>
   <time name="total">    0.96    1.01</time>
   <energy>
    <i name="alphaZ">    316.14514549 </i>
    <i name="ewald"> -14807.97940352 </i>
    <i name="hartreedc">   -139.37646286 </i>
    <i name="XCdc">   -776.27861819 </i>
    <i name="pawpsdc">   8803.41707833 </i>
    <i name="pawaedc">  -7043.47671478 </i>
    <i name="eentropy">     -0.01926140 </i>
    <i name="bandstr">   4759.64703413 </i>
    <i name="atom">  10306.12861560 </i>
    <i name="e_fr_energy">   1418.20741280 </i>
    <i name="e_wo_entrp">   1418.22667420 </i>
    <i name="e_0_energy">   1418.21704350 </i>
   </energy>
  </scstep>
  <scstep>
   <time name="diag">    0.34    0.34</time>
   <time name="diis">    0.44    0.44</time>
   <time name="orth">    0.10    0.10</time>
   <time name="total">    0.87    0.88</time>
   <energy>
    <i name="e_fr_energy">     30.69928600 </i>
    <i name="e_wo_entrp">     30.71410157 </i>
    <i name="e_0_energy">     30.70669378 </i>
   </energy>
  </scstep>
  <scstep>
   <time name="diag">    0.34    0.34</time>
   <time name="diis">    0.44    0.44</time>
   <time name="orth">    0.10    0.10</time>
   <time name="total">    0.87    0.88</time>
   <energy>
    <i name="e_fr_energy">   -258.57404984 </i>
    <i name="e_wo_entrp">   -258.53482677 </i>
    <i name="e_0_energy">   -258.55443830 </i>
   </energy>
  </scstep>
  <scstep>
   <time name="diag">    0.34    0.34</time>
   <time name="diis">    0.43    0.44</time>
   <time name="orth">    0.10    0.10</time>
   <time name="total">    0.87    0.90</time>
   <energy>
    <i name="e_fr_energy">   -339.86842091 </i>
    <i name="e_wo_entrp">   -339.83858202 </i>
    <i name="e_0_energy">   -339.85350147 </i>
   </energy>
  </scstep>
  <scstep>
   <time name="diag">    0.34    0.34</time>
   <time name="diis">    0.44    0.44</time>
   <time name="orth">    0.10    0.10</time>
   <time name="total">    0.87    0.88</time>
   <energy>
    <i name="e_fr_energy">   -366.57083844 </i>
    <i name="e_wo_entrp">   -366.50987213 </i>
    <i name="e_0_energy">   -366.54035529 </i>
   </energy>
  </scstep>
  <scstep>
   <time name="diag">    0.34    0.34</time>
   <time name="diis">    0.44    0.44</time>
   <time name="orth">    0.10    0.10</time>
   <time name="total">    0.87    0.88</time>
   <energy>
    <i name="e_fr_energy">   -376.67073528 </i>
    <i name="e_wo_entrp">   -376.62353971 </i>
    <i name="e_0_energy">   -376.64713749 </i>
   </energy>
  </scstep>
  <scstep>
   <time name="diag">    0.34    0.34</time>
   <time name="diis">    0.44    0.44</time>
   <time name="orth">    0.10    0.10</time>
   <time name="total">    0.87    0.88</time>
   <energy>
    <i name="e_fr_energy">   -380.38486341 </i>
    <i name="e_wo_entrp">   -380.33465904 </i>
    <i name="e_0_energy">   -380.35976122 </i>
   </energy>
  </scstep>
  <scstep>
   <time name="diag">    0.34    0.34</time>
   <time name="diis">    0.43    0.44</time>
   <time name="orth">    0.10    0.10</time>
   <time name="total">    0.87    0.88</time>
   <energy>
    <i name="e_fr_energy">   -381.91263690 </i>
    <i name="e_wo_entrp">   -381.86606494 </i>
    <i name="e_0_energy">   -381.88935092 </i>
   </energy>
  </scstep>
  <scstep>
   <time name="diag">    0.34    0.34</time>
   <time name="diis">    0.99    1.00</time>
   <time name="orth">    0.10    0.10</time>
   <time name="total">    1.42    1.44</time>
   <energy>
    <i name="e_fr_energy">   -382.83503346 </i>
    <i name="e_wo_entrp">   -382.78791490 </i>
    <i name="e_0_energy">   -382.81147418 </i>
   </energy>
  </scstep>
  <scstep>
   <time name="diag">    0.34    0.34</time>
   <time name="diis">    0.96    0.97</time>
   <time name="orth">    0.10    0.10</time>
   <time name="total">    1.40    1.41</time>
   <energy>
    <i name="e_fr_energy">   -382.94177345 </i>
    <i name="e_wo_entrp">   -382.89361710 </i>
    <i name="e_0_energy">   -382.91769527 </i>
   </energy>
  </scstep>
  <scstep>
   <time name="diag">    0.34    0.34</time>
   <time name="diis">    0.91    0.92</time>
   <time name="orth">    0.10    0.10</time>
   <time name="total">    1.34    1.36</time>
   <energy>
    <i name="e_fr_energy">   -382.94373239 </i>
    <i name="e_wo_entrp">   -382.89556353 </i>
    <i name="e_0_energy">   -382.91964796 </i>
   </energy>
  </scstep>
  <scstep>
   <time name="diag">    0.34    0.34</time>
   <time name="diis">    0.78    0.79</time>
   <time name="orth">    0.10    0.10</time>
   <time name="total">    1.26    1.28</time>
   <energy>
    <i name="e_fr_energy">   -382.94375008 </i>
    <i name="e_wo_entrp">   -382.89558113 </i>
    <i name="e_0_energy">   -382.91966561 </i>
   </energy>
  </scstep>
  <scstep>
   <time name="diag">    0.34    0.34</time>
   <time name="diis">    0.87    0.88</time>
   <time name="orth">    0.10    0.10</time>
   <time name="total">    1.44    1.45</time>
   <energy>
    <i name="e_fr_energy">   -385.40457836 </i>
    <i name="e_wo_entrp">   -385.36721813 </i>
    <i name="e_0_energy">   -385.38589824 </i>
   </energy>
  </scstep>
  <scstep>
   <time name="diag">    0.34    0.34</time>
   <time name="diis">    0.86    0.88</time>
   <time name="orth">    0.10    0.10</time>
   <time name="total">    1.43    1.45</time>
   <energy>
    <i name="e_fr_energy">   -392.34620657 </i>
    <i name="e_wo_entrp">   -392.29577072 </i>
    <i name="e_0_energy">   -392.32098865 </i>
   </energy>
  </scstep>
  <scstep>
   <time name="diag">    0.34    0.34</time>
   <time name="diis">    0.93    0.94</time>
   <time name="orth">    0.10    0.10</time>
   <time name="total">    1.49    1.51</time>
   <energy>
    <i name="e_fr_energy">   -393.06104773 </i>
    <i name="e_wo_entrp">   -393.01204871 </i>
    <i name="e_0_energy">   -393.03654822 </i>
   </energy>
  </scstep>
  <scstep>
   <time name="diag">    0.34    0.34</time>
   <time name="diis">    0.90    0.91</time>
   <time name="orth">    0.10    0.10</time>
   <time name="total">    1.47    1.48</time>
   <energy>
    <i name="e_fr_energy">   -393.19564988 </i>
    <i name="e_wo_entrp">   -393.14673982 </i>
    <i name="e_0_energy">   -393.17119485 </i>
   </energy>
  </scstep>
  <scstep>
   <time name="diag">    0.34    0.34</time>
   <time name="diis">    0.88    0.93</time>
   <time name="orth">    0.10    0.10</time>
   <time name="total">    1.45    1.51</time>
   <energy>
    <i name="e_fr_energy">   -393.26856233 </i>
    <i name="e_wo_entrp">   -393.21985612 </i>
    <i name="e_0_energy">   -393.24420923 </i>
   </energy>
  </scstep>
  <scstep>
   <time name="diag">    0.34    0.34</time>
   <time name="diis">    0.92    0.94</time>
   <time name="orth">    0.10    0.10</time>
   <time name="total">    1.49    1.51</time>
   <energy>
    <i name="e_fr_energy">   -393.31341373 </i>
    <i name="e_wo_entrp">   -393.26419822 </i>
    <i name="e_0_energy">   -393.28880597 </i>
   </energy>
  </scstep>
  <scstep>
   <time name="diag">    0.34    0.34</time>
   <time name="diis">    0.94    0.95</time>
   <time name="orth">    0.10    0.10</time>
   <time name="total">    1.51    1.52</time>
   <energy>
    <i name="e_fr_energy">   -393.32502087 </i>
    <i name="e_wo_entrp">   -393.26739152 </i>
    <i name="e_0_energy">   -393.29620620 </i>
   </energy>
  </scstep>
  <scstep>
   <time name="diag">    0.34    0.34</time>
   <time name="diis">    0.94    0.95</time>
   <time name="orth">    0.10    0.10</time>
   <time name="total">    1.51    1.52</time>
   <energy>
    <i name="e_fr_energy">   -393.32776270 </i>
    <i name="e_wo_entrp">   -393.26538837 </i>
    <i name="e_0_energy">   -393.29657553 </i>
   </energy>
  </scstep>
  <scstep>
   <time name="diag">    0.34    0.34</time>
   <time name="diis">    0.94    0.95</time>
   <time name="orth">    0.10    0.10</time>
   <time name="total">    1.51    1.52</time>
   <energy>
    <i name="e_fr_energy">   -393.32886960 </i>
    <i name="e_wo_entrp">   -393.26334294 </i>
    <i name="e_0_energy">   -393.29610627 </i>
   </energy>
  </scstep>
  <scstep>
   <time name="diag">    0.34    0.34</time>
   <time name="diis">    0.92    0.93</time>
   <time name="orth">    0.10    0.10</time>
   <time name="total">    1.49    1.51</time>
   <energy>
    <i name="e_fr_energy">   -393.32954763 </i>
    <i name="e_wo_entrp">   -393.26191046 </i>
    <i name="e_0_energy">   -393.29572904 </i>
   </energy>
  </scstep>
  <scstep>
   <time name="diag">    0.34    0.34</time>
   <time name="diis">    0.91    0.92</time>
   <time name="orth">    0.10    0.10</time>
   <time name="total">    1.48    1.49</time>
   <energy>
    <i name="e_fr_energy">   -393.32997251 </i>
    <i name="e_wo_entrp">   -393.26086185 </i>
    <i name="e_0_energy">   -393.29541718 </i>
   </energy>
  </scstep>
  <scstep>
   <time name="diag">    0.33    0.36</time>
   <time name="diis">    0.92    0.93</time>
   <time name="orth">    0.10    0.10</time>
   <time name="total">    1.48    1.52</time>
   <energy>
    <i name="e_fr_energy">   -393.33018411 </i>
    <i name="e_wo_entrp">   -393.26022775 </i>
    <i name="e_0_energy">   -393.29520593 </i>
   </energy>
  </scstep>
  <scstep>
   <time name="diag">    0.34    0.34</time>
   <time name="diis">    0.92    0.94</time>
   <time name="orth">    0.10    0.10</time>
   <time name="total">    1.49    1.51</time>
   <energy>
    <i name="e_fr_energy">   -393.33025259 </i>
    <i name="e_wo_entrp">   -393.26003358 </i>
    <i name="e_0_energy">   -393.29514309 </i>
   </energy>
  </scstep>
  <scstep>
   <time name="diag">    0.34    0.34</time>
   <time name="diis">    0.92    0.93</time>
   <time name="orth">    0.10    0.10</time>
   <time name="total">    1.49    1.50</time>
   <energy>
    <i name="e_fr_energy">   -393.33027398 </i>
    <i name="e_wo_entrp">   -393.25998964 </i>
    <i name="e_0_energy">   -393.29513181 </i>
   </energy>
  </scstep>
  <scstep>
   <time name="diag">    0.33    0.34</time>
   <time name="diis">    0.75    0.75</time>
   <time name="orth">    0.10    0.10</time>
   <time name="total">    1.27    1.28</time>
   <energy>
    <i name="alphaZ">    316.14514549 </i>
    <i name="ewald"> -14807.97940352 </i>
    <i name="hartreedc">   -196.32319947 </i>
    <i name="XCdc">   -765.90967934 </i>
    <i name="pawpsdc">  94578.49456875 </i>
    <i name="pawaedc"> -92836.69401241 </i>
    <i name="eentropy">     -0.07030547 </i>
    <i name="bandstr">   3012.87799123 </i>
    <i name="atom">  10306.12861560 </i>
    <i name="e_fr_energy">   -393.33027914 </i>
    <i name="e_wo_entrp">   -393.25997367 </i>
    <i name="e_0_energy">   -393.29512641 </i>
   </energy>
  </scstep>
  <structure>
   <crystal>
    <varray name="basis" >
     <v>      10.21149500       0.00000000       0.00000000 </v>
     <v>       0.00000000      10.21149500       0.00000000 </v>
     <v>       0.00000000       0.00000000      10.21149500 </v>
    </varray>
    <i name="volume">   1064.79986425 </i>
    <varray name="rec_basis" >
     <v>       0.09792885       0.00000000       0.00000000 </v>
     <v>       0.00000000       0.09792885       0.00000000 </v>
     <v>       0.00000000       0.00000000       0.09792885 </v>
    </varray>
   </crystal>
   <varray name="positions" >
    <v>       0.85939500       0.40404700       0.35324200 </v>
    <v>       0.45164800       0.08359360       0.35712500 </v>
    <v>       0.88938900       0.79312200       0.80742500 </v>
    <v>       0.98328500       0.07462830       0.60860900 </v>
    <v>       0.63231200       0.96814800       0.61095200 </v>
    <v>       0.29282000       0.81913500       0.74355800 </v>
    <v>       0.68941100       0.70760000       0.63060200 </v>
    <v>       0.55241800       0.62910400       0.02464250 </v>
    <v>       0.86139700       0.60316300       0.24331800 </v>
    <v>       0.33116000       0.68204500       0.57366100 </v>
    <v>       0.10098700       0.22480400       0.19532700 </v>
    <v>       0.30313800       0.68909400       0.33500700 </v>
    <v>       0.90452100       0.64534900       0.64543200 </v>
    <v>       0.23944100       0.04591200       0.26397800 </v>
    <v>       0.83450600       0.89019400       0.62498800 </v>
    <v>       0.15134600       0.58779600       0.92899300 </v>
    <v>       0.22394400       0.87059400       0.41427700 </v>
    <v>       0.09121780       0.67002900       0.28464600 </v>
    <v>       0.87248800       0.83280100       0.21814000 </v>
    <v>       0.57996600       0.32921300       0.57369400 </v>
    <v>       0.58363200       0.40489100       0.90428400 </v>
    <v>       0.07809260       0.88402600       0.56522500 </v>
    <v>       0.21555500       0.35046500       0.06543610 </v>
    <v>       0.56810400       0.02202710       0.96660100 </v>
    <v>       0.67972600       0.99393900       0.34535100 </v>
    <v>       0.54845700       0.33419900       0.11754800 </v>
    <v>       0.12005900       0.81087000       0.91305400 </v>
    <v>       0.00128000       0.22532300       0.81348400 </v>
    <v>       0.28716500       0.00496000       0.94707900 </v>
    <v>       0.81640700       0.34343800       0.54603200 </v>
    <v>       0.92425900       0.03382240       0.17733000 </v>
    <v>       0.20774400       0.58321200       0.13529100 </v>
    <v>       0.64598300       0.68396600       0.20046900 </v>
    <v>       0.10145100       0.97701700       0.07207950 </v>
    <v>       0.03890480       0.43006600       0.20726500 </v>
    <v>       0.73242700       0.55811400       0.46886400 </v>
    <v>       0.26728700       0.14678900       0.68151900 </v>
    <v>       0.77463000       0.54078400       0.06495080 </v>
    <v>       0.00185580       0.70823500       0.08014630 </v>
    <v>       0.70506800       0.60978400       0.86607200 </v>
    <v>       0.01389880       0.40377600       0.95282900 </v>
    <v>       0.70413800       0.77602800       0.40558000 </v>
    <v>       0.45722100       0.40991000       0.39055900 </v>
    <v>       0.22643400       0.47998300       0.32616700 </v>
    <v>       0.50979300       0.79906600       0.58559400 </v>
    <v>       0.46352500       0.97219400       0.77134000 </v>
    <v>       0.85920400       0.93526900       0.43671400 </v>
    <v>       0.77272500       0.06610930       0.77910300 </v>
    <v>       0.39555700       0.18070100       0.85635300 </v>
    <v>       0.13305300       0.97149900       0.75821000 </v>
    <v>       0.47630100       0.76083200       0.18971800 </v>
    <v>       0.11808200       0.66409000       0.49185600 </v>
    <v>       0.18277500       0.08025360       0.47931900 </v>
    <v>       0.15938800       0.17600900       0.94874600 </v>
    <v>       0.41896200       0.19967600       0.08034070 </v>
    <v>       0.57585100       0.16891000       0.73168900 </v>
    <v>       0.61606100       0.25684900       0.34030300 </v>
    <v>       0.91017200       0.69037400       0.44069800 </v>
    <v>       0.35800800       0.67021300       0.01109940 </v>
    <v>       0.31643500       0.29448600       0.26106700 </v>
    <v>       0.65175400       0.86151100       0.84254500 </v>
    <v>       0.44888600       0.83821700       0.93643700 </v>
    <v>       0.50575100       0.54161100       0.56923200 </v>
    <v>       0.61202700       0.12499000       0.15473000 </v>
    <v>       0.50656300       0.67522100       0.78604200 </v>
    <v>       0.39368400       0.51146800       0.18201200 </v>
    <v>       0.21051400       0.36308700       0.83545000 </v>
    <v>       0.99526300       0.25683800       0.55696600 </v>
    <v>       0.11066200       0.69603400       0.69518000 </v>
    <v>       0.81723000       0.19210000       0.32661400 </v>
    <v>       0.43176100       0.35754400       0.74084800 </v>
    <v>       0.76629900       0.12070900       0.54173700 </v>
    <v>       0.01974790       0.47979700       0.52791900 </v>
    <v>       0.69822800       0.47807500       0.68911400 </v>
    <v>       0.77317100       0.80782800       0.99958100 </v>
    <v>       0.29442200       0.47056600       0.52585400 </v>
    <v>       0.22561500       0.82731100       0.16840900 </v>
    <v>       0.92628300       0.59368700       0.90621100 </v>
    <v>       0.36252600       0.44639100       0.95841100 </v>
    <v>       0.78800300       0.04645030       0.02609340 </v>
    <v>       0.96290400       0.42808400       0.72774000 </v>
    <v>       0.28616600       0.56013300       0.73176100 </v>
    <v>       0.17168100       0.33188200       0.63799200 </v>
    <v>       0.36127400       0.98588900       0.58113300 </v>
    <v>       0.01614630       0.13809500       0.36864000 </v>
    <v>       0.77988200       0.27207900       0.74525900 </v>
    <v>       0.45091900       0.86707800       0.38630700 </v>
    <v>       0.92821400       0.23584600       0.03588960 </v>
    <v>       0.67447500       0.19926700       0.95078300 </v>
    <v>       0.37684900       0.24028000       0.53223900 </v>
    <v>       0.77453100       0.33221800       0.12936600 </v>
    <v>       0.54563200       0.11349800       0.53166100 </v>
    <v>       0.39656400       0.97524700       0.13633900 </v>
    <v>       0.64541300       0.47247500       0.26737900 </v>
    <v>       0.95167200       0.02792180       0.91914400 </v>
    <v>       0.11622600       0.33277100       0.41056200 </v>
    <v>       0.64693500       0.90758400       0.13301700 </v>
    <v>       0.51623700       0.61711900       0.37377600 </v>
    <v>       0.80865900       0.41362000       0.88937600 </v>
    <v>       0.04077520       0.90695200       0.32927300 </v>
   </varray>
  </structure>
  <varray name="forces" >
   <v>       1.28876538       1.57499626      -2.39411243 </v>
   <v>      -1.71906284       0.91976296      -4.17848266 </v>
   <v>       1.38567660       1.41393342       2.05485418 </v>
   <v>      -0.92028908      -5.57877097       2.84738458 </v>
   <v>       2.63177671      -5.74993986       4.25261784 </v>
   <v>       1.19442201       0.09348017       0.80113701 </v>
   <v>       0.78859596      -0.28185007       2.03484834 </v>
   <v>       2.64704723      -2.94247217      -1.74777908 </v>
   <v>       2.11536560      -0.11081773       1.79107116 </v>
   <v>      -0.10934538       2.14974303      -2.62306521 </v>
   <v>      -0.16878021      -2.56570837      -1.42662701 </v>
   <v>       2.17681524      -0.52148842       0.55558637 </v>
   <v>      -0.72407381      -2.00537842       1.58773085 </v>
   <v>      -0.97569131       1.34388714      -0.16103512 </v>
   <v>       0.77766729      -1.30106550       4.43066810 </v>
   <v>       0.46096511      -0.18185415      -2.63528552 </v>
   <v>       3.43632450      -0.00312541       0.64281681 </v>
   <v>      -3.70015577       0.86643235      -0.18899911 </v>
   <v>      -2.35308399      -1.87314314      -0.35086524 </v>
   <v>       1.40129279      -0.00341406      -1.25215650 </v>
   <v>      -1.27638832       0.63850083      -0.38782476 </v>
   <v>      -1.79491510      -0.96978941       0.15984761 </v>
   <v>      -0.48197488      -0.06925631       1.12650166 </v>
   <v>      -2.27582557      -0.03715812      -1.68776608 </v>
   <v>      -2.36267440       0.68255620      -1.54529980 </v>
   <v>       2.99773729       5.80758535       1.06223887 </v>
   <v>      -0.17070402      -0.01163762       0.16959040 </v>
   <v>      -0.78702430      -1.59783863      -2.11717680 </v>
   <v>       0.34169228      -1.58962756      -0.95721098 </v>
   <v>      -4.36349568       1.72701730      -0.27666859 </v>
   <v>       0.83767540       2.54294929       2.65291579 </v>
   <v>      -2.51589627       0.45752842      -1.36410367 </v>
   <v>       8.28310663      -1.70461011       1.85099953 </v>
   <v>       1.13154321       0.16271399       0.40604648 </v>
   <v>      -2.51750802       1.76316816      -0.80015328 </v>
   <v>      -0.36476211      -1.73235466       0.04918140 </v>
   <v>      -1.68923881      -1.20275740       3.30166582 </v>
   <v>      -1.26255618       1.16225331      -0.28758588 </v>
   <v>      -0.41045232       0.36606976      -0.23234553 </v>
   <v>      -0.11069469       2.09748113      -1.32983657 </v>
   <v>       3.34387240       1.63267242       0.93803060 </v>
   <v>      -1.55785206       0.15914832      -0.45895597 </v>
   <v>       0.21008408      -1.68726963      -0.21309428 </v>
   <v>       0.42630602       2.00510839      -0.40143261 </v>
   <v>      -2.09470981      -0.38141012      -0.18391674 </v>
   <v>      -0.26925400       0.61618899      -0.75975294 </v>
   <v>       2.15486787       0.98750616      -3.34430828 </v>
   <v>       1.00916613      -2.59009625       0.82604499 </v>
   <v>      -0.37817930      -0.46754736       1.94843349 </v>
   <v>      -0.61524719       1.96422414       0.76683212 </v>
   <v>      -7.38053124       4.19941709      -0.31103524 </v>
   <v>       2.43235554       0.31494481      -0.81756899 </v>
   <v>       1.48066660       0.97060682       1.42220447 </v>
   <v>       0.17453925      -0.85332457       0.88796914 </v>
   <v>      -6.16952167      -3.98957622      -1.85381738 </v>
   <v>       0.67738599       0.64129877       2.48162488 </v>
   <v>      -1.63473532      -0.18926699       0.99739488 </v>
   <v>       0.35136464       1.44727294      -1.87897746 </v>
   <v>      -4.71590732       0.28081700      -1.53740764 </v>
   <v>       0.79484570      -3.13674501       0.15507804 </v>
   <v>      -0.01171321      -0.45673877      -3.83864658 </v>
   <v>      -0.67332391      -0.09536366       1.24586387 </v>
   <v>       0.80233700       0.04351859       2.98302880 </v>
   <v>       0.84519442      -0.03759941       3.46696475 </v>
   <v>      -1.44596973      -0.72748470      -0.48376008 </v>
   <v>       4.15139207      -0.82010265       0.34994152 </v>
   <v>      -0.98738281       0.52618552       1.05064091 </v>
   <v>       0.31566570       1.63026826       0.75286029 </v>
   <v>      -0.65469521       0.28358704       4.03576775 </v>
   <v>      -0.34860874      -1.27257917      -0.83367957 </v>
   <v>      -0.17021425       2.35686405      -0.28380948 </v>
   <v>       1.87659690       2.22820659      -0.49952318 </v>
   <v>      -1.50326933       1.33754529      -0.88348736 </v>
   <v>       0.19251671       1.22162335      -0.47876221 </v>
   <v>       3.33085979      -2.53452574       1.48973632 </v>
   <v>      -0.12082417      -0.29379714       0.80542031 </v>
   <v>       0.25893576      -1.12345851      -0.23900068 </v>
   <v>       1.13727204       2.25113302      -1.29295682 </v>
   <v>       4.22752912       1.96941632      -1.49583763 </v>
   <v>      -3.03912707      -1.43101940       1.20332018 </v>
   <v>       0.56816557       1.38733435      -0.14106392 </v>
   <v>       0.52723202      -2.07800968       4.20423905 </v>
   <v>       0.13234219       0.84251226      -0.93240209 </v>
   <v>      -0.07958237      -2.34208254      -1.82224608 </v>
   <v>      -2.02583404      -1.97591929      -0.18840123 </v>
   <v>      -0.36312437      -0.77352192      -1.24055352 </v>
   <v>       0.90203481      -0.12793450      -0.23864631 </v>
   <v>       0.76468769      -2.91873784       0.72226722 </v>
   <v>       0.11845603       4.64296114      -1.99509083 </v>
   <v>      -1.98669843       2.15326295      -2.44283922 </v>
   <v>      -1.01720251       0.04330464       1.65970554 </v>
   <v>      -1.16403340       4.35885192      -3.22970650 </v>
   <v>       2.22137432      -0.35876225       0.20386620 </v>
   <v>       0.70900828      -0.27651732      -0.12306193 </v>
   <v>       3.87268140      -1.72565916      -4.28404743 </v>
   <v>       1.62047889      -2.13290071      -1.89424696 </v>
   <v>      -0.80159975      -1.19231545       3.03408532 </v>
   <v>       0.16860606       2.74101298      -1.06656976 </v>
   <v>      -1.61164898      -1.17854714       1.83748202 </v>
   <v>       0.18009304       0.19601803      -1.61351871 </v>
  </varray>
  <varray name="stress" >
   <v>     782.10765188     -23.26044788      20.73810181 </v>
   <v>     -23.26044796     770.82210318     -25.35927371 </v>
   <v>      20.73810176     -25.35927352     751.92192849 </v>
  </varray>
  <energy>
   <i name="e_fr_energy">   -393.33027914 </i>
   <i name="e_wo_entrp">   -393.29512641 </i>
   <i name="e_0_energy">     -0.07030547 </i>
  </energy>
  <time name="totalsc">   36.49   37.08</time>
  <eigenvalues>
   <array>
    <dimension dim="1">band</dimension>
    <dimension dim="2">kpoint</dimension>
    <dimension dim="3">spin</dimension>
    <field>eigene</field>
    <field>occ</field>
    <set>
     <set comment="spin 1">
      <set comment="kpoint 1">
       <r>   -3.2011    1.0000 </r>
       <r>   -2.2356    1.0000 </r>
       <r>   -2.0506    1.0000 </r>
       <r>   -1.9877    1.0000 </r>
       <r>   -1.7207    1.0000 </r>
       <r>   -1.6782    1.0000 </r>
       <r>   -1.4618    1.0000 </r>
       <r>   -1.0429    1.0000 </r>
       <r>   -0.8362    1.0000 </r>
       <r>   -0.8144    1.0000 </r>
       <r>   -0.6875    1.0000 </r>
       <r>   -0.4359    1.0000 </r>
       <r>   -0.3302    1.0000 </r>
       <r>   -0.3167    1.0000 </r>
       <r>   -0.2045    1.0000 </r>
       <r>   -0.1670    1.0000 </r>
       <r>   -0.0379    1.0000 </r>
       <r>   -0.0080    1.0000 </r>
       <r>    0.2015    1.0000 </r>
       <r>    0.6027    1.0000 </r>
       <r>    0.6407    1.0000 </r>
       <r>    0.8185    1.0000 </r>
       <r>    0.9376    1.0000 </r>
       <r>    0.9718    1.0000 </r>
       <r>    1.1634    1.0000 </r>
       <r>    1.2211    1.0000 </r>
       <r>    1.3700    1.0000 </r>
       <r>    1.9723    1.0000 </r>
       <r>    2.1049    1.0000 </r>
       <r>    2.2896    1.0000 </r>
       <r>    2.3407    1.0000 </r>
       <r>    2.3952    1.0000 </r>
       <r>    2.8137    1.0000 </r>
       <r>    2.9321    1.0000 </r>
       <r>    3.1022    1.0000 </r>
       <r>    3.1718    1.0000 </r>
       <r>    3.2036    1.0000 </r>
       <r>    3.2430    1.0000 </r>
       <r>    3.2701    1.0000 </r>
       <r>    3.3890    1.0000 </r>
       <r>    3.4090    1.0000 </r>
       <r>    3.4732    1.0000 </r>
       <r>    3.5403    1.0000 </r>
       <r>    3.5715    1.0000 </r>
       <r>    3.6383    1.0000 </r>
       <r>    3.6718    1.0000 </r>
       <r>    3.7070    1.0000 </r>
       <r>    3.7841    1.0000 </r>
       <r>    3.8160    1.0000 </r>
       <r>    3.9039    1.0000 </r>
       <r>    3.9496    1.0000 </r>
       <r>    4.0055    1.0000 </r>
       <r>    4.0263    1.0000 </r>
       <r>    4.0773    1.0000 </r>
       <r>    4.2144    1.0000 </r>
       <r>    4.2460    1.0000 </r>
       <r>    4.3533    1.0000 </r>
       <r>    4.5085    1.0000 </r>
       <r>    4.5296    1.0000 </r>
       <r>    4.6980    1.0000 </r>
       <r>    4.7388    1.0000 </r>
       <r>    4.7748    1.0000 </r>
       <r>    4.8621    1.0000 </r>
       <r>    4.9005    1.0000 </r>
       <r>    4.9934    1.0000 </r>
       <r>    5.0241    1.0000 </r>
       <r>    5.1145    1.0000 </r>
       <r>    5.1307    1.0000 </r>
       <r>    5.1762    1.0000 </r>
       <r>    5.2373    1.0000 </r>
       <r>    5.2643    1.0000 </r>
       <r>    5.3232    1.0000 </r>
       <r>    5.3500    1.0000 </r>
       <r>    5.3842    1.0000 </r>
       <r>    5.4329    1.0000 </r>
       <r>    5.5128    1.0000 </r>
       <r>    5.5424    1.0000 </r>
       <r>    5.6734    1.0000 </r>
       <r>    5.7194    1.0000 </r>
       <r>    5.8122    1.0000 </r>
       <r>    5.8372    1.0000 </r>
       <r>    7.1312    1.0000 </r>
       <r>    7.1368    1.0000 </r>
       <r>    7.1856    1.0000 </r>
       <r>    7.3327    1.0000 </r>
       <r>    7.4322    1.0000 </r>
       <r>    7.5035    1.0000 </r>
       <r>    7.5274    1.0000 </r>
       <r>    7.5723    1.0000 </r>
       <r>    7.7170    1.0000 </r>
       <r>    7.8320    1.0000 </r>
       <r>    7.9257    1.0000 </r>
       <r>    8.0235    1.0000 </r>
       <r>    8.1310    1.0000 </r>
       <r>    8.1667    1.0000 </r>
       <r>    8.2550    1.0000 </r>
       <r>    8.3687    1.0000 </r>
       <r>    8.4543    1.0000 </r>
       <r>    8.4943    1.0000 </r>
       <r>    8.6193    1.0000 </r>
       <r>    8.6416    1.0000 </r>
       <r>    8.7002    1.0000 </r>
       <r>    8.7429    1.0000 </r>
       <r>    8.7827    1.0000 </r>
       <r>    8.7919    1.0000 </r>
       <r>    8.8132    1.0000 </r>
       <r>    8.8772    1.0000 </r>
       <r>    8.9388    1.0000 </r>
       <r>    8.9983    1.0000 </r>
       <r>    9.0224    1.0000 </r>
       <r>    9.0485    1.0000 </r>
       <r>    9.1056    1.0000 </r>
       <r>    9.1370    1.0000 </r>
       <r>    9.1904    1.0000 </r>
       <r>    9.2254    1.0000 </r>
       <r>    9.2957    1.0000 </r>
       <r>    9.3305    1.0000 </r>
       <r>    9.4034    1.0000 </r>
       <r>    9.5018    1.0000 </r>
       <r>    9.5080    1.0000 </r>
       <r>    9.5378    1.0000 </r>
       <r>    9.5919    1.0000 </r>
       <r>    9.7175    1.0000 </r>
       <r>    9.7722    1.0000 </r>
       <r>    9.8268    1.0000 </r>
       <r>    9.8734    1.0000 </r>
       <r>    9.8973    1.0000 </r>
       <r>    9.9459    1.0000 </r>
       <r>   10.0511    1.0000 </r>
       <r>   10.1315    1.0000 </r>
       <r>   10.1995    1.0000 </r>
       <r>   10.2117    1.0000 </r>
       <r>   10.2780    1.0000 </r>
       <r>   10.3437    1.0000 </r>
       <r>   10.3923    1.0000 </r>
       <r>   10.4304    1.0000 </r>
       <r>   10.4891    1.0000 </r>
       <r>   10.5583    1.0000 </r>
       <r>   10.5893    1.0000 </r>
       <r>   10.6400    1.0000 </r>
       <r>   10.7179    1.0000 </r>
       <r>   10.7243    1.0000 </r>
       <r>   10.7655    1.0000 </r>
       <r>   10.8197    1.0000 </r>
       <r>   10.9249    1.0000 </r>
       <r>   10.9742    1.0000 </r>
       <r>   11.0253    1.0000 </r>
       <r>   11.1476    1.0000 </r>
       <r>   11.2117    1.0000 </r>
       <r>   11.2735    1.0000 </r>
       <r>   11.3285    1.0000 </r>
       <r>   11.4089    1.0000 </r>
       <r>   11.4421    1.0000 </r>
       <r>   11.4766    1.0000 </r>
       <r>   11.5483    1.0000 </r>
       <r>   11.5959    1.0000 </r>
       <r>   11.6233    1.0000 </r>
       <r>   11.6630    1.0000 </r>
       <r>   11.7217    1.0000 </r>
       <r>   11.7801    1.0000 </r>
       <r>   11.8069    1.0000 </r>
       <r>   11.8939    1.0000 </r>
       <r>   11.9381    1.0000 </r>
       <r>   11.9951    1.0000 </r>
       <r>   12.0614    1.0000 </r>
       <r>   12.1153    1.0000 </r>
       <r>   12.2041    1.0000 </r>
       <r>   12.2474    1.0000 </r>
       <r>   12.3391    1.0000 </r>
       <r>   12.4023    1.0000 </r>
       <r>   12.5092    1.0000 </r>
       <r>   12.7171    1.0000 </r>
       <r>   12.8164    1.0000 </r>
       <r>   12.9348    1.0000 </r>
       <r>   13.0447    1.0000 </r>
       <r>   13.1344    1.0000 </r>
       <r>   13.1946    1.0000 </r>
       <r>   13.2551    1.0000 </r>
       <r>   13.5079    1.0000 </r>
       <r>   13.5533    1.0000 </r>
       <r>   13.6107    1.0000 </r>
       <r>   13.6360    1.0000 </r>
       <r>   13.6532    1.0000 </r>
       <r>   13.7457    1.0000 </r>
       <r>   13.7980    1.0000 </r>
       <r>   13.8398    1.0000 </r>
       <r>   13.9126    1.0000 </r>
       <r>   13.9871    1.0000 </r>
       <r>   14.0345    1.0000 </r>
       <r>   14.1353    1.0000 </r>
       <r>   14.1754    1.0000 </r>
       <r>   14.2472    1.0000 </r>
       <r>   14.2806    1.0000 </r>
       <r>   14.3267    1.0000 </r>
       <r>   14.3439    1.0000 </r>
       <r>   14.3975    1.0000 </r>
       <r>   14.4786    1.0000 </r>
       <r>   14.5254    0.9995 </r>
       <r>   14.5666    0.9842 </r>
       <r>   14.6327    0.6105 </r>
       <r>   14.6636    0.2757 </r>
       <r>   14.6811    0.1383 </r>
       <r>   14.7308    0.0063 </r>
       <r>   14.7889    0.0000 </r>
       <r>   14.8329    0.0000 </r>
       <r>   14.9054    0.0000 </r>
       <r>   14.9136    0.0000 </r>
       <r>   14.9832    0.0000 </r>
       <r>   15.0358    0.0000 </r>
       <r>   15.1163    0.0000 </r>
       <r>   15.1887    0.0000 </r>
       <r>   15.1986    0.0000 </r>
       <r>   15.2173    0.0000 </r>
       <r>   15.2409    0.0000 </r>
       <r>   15.2637    0.0000 </r>
       <r>   15.3072    0.0000 </r>
       <r>   15.3164    0.0000 </r>
       <r>   15.3642    0.0000 </r>
       <r>   15.4001    0.0000 </r>
       <r>   15.4650    0.0000 </r>
       <r>   15.4994    0.0000 </r>
       <r>   15.5407    0.0000 </r>
       <r>   15.5684    0.0000 </r>
       <r>   15.6471    0.0000 </r>
       <r>   15.6857    0.0000 </r>
       <r>   15.7313    0.0000 </r>
       <r>   15.7881    0.0000 </r>
       <r>   15.8049    0.0000 </r>
       <r>   15.8376    0.0000 </r>
       <r>   15.8774    0.0000 </r>
       <r>   15.8857    0.0000 </r>
       <r>   15.9745    0.0000 </r>
       <r>   16.0200    0.0000 </r>
       <r>   16.0868    0.0000 </r>
       <r>   16.1227    0.0000 </r>
       <r>   16.1750    0.0000 </r>
       <r>   16.2381    0.0000 </r>
       <r>   16.2726    0.0000 </r>
       <r>   16.3079    0.0000 </r>
       <r>   16.3559    0.0000 </r>
       <r>   16.4335    0.0000 </r>
       <r>   16.4666    0.0000 </r>
       <r>   16.5466    0.0000 </r>
       <r>   16.6193    0.0000 </r>
       <r>   16.7248    0.0000 </r>
       <r>   16.8031    0.0000 </r>
       <r>   16.8351    0.0000 </r>
       <r>   16.8990    0.0000 </r>
       <r>   16.9571    0.0000 </r>
       <r>   17.0387    0.0000 </r>
       <r>   17.2488    0.0000 </r>
       <r>   17.6116    0.0000 </r>
       <r>   17.7099    0.0000 </r>
       <r>   17.8929    0.0000 </r>
       <r>   17.9538    0.0000 </r>
       <r>   18.1401    0.0000 </r>
       <r>   18.2605    0.0000 </r>
       <r>   18.3314    0.0000 </r>
       <r>   18.3916    0.0000 </r>
       <r>   18.4453    0.0000 </r>
       <r>   18.4736    0.0000 </r>
       <r>   18.5531    0.0000 </r>
       <r>   18.5849    0.0000 </r>
       <r>   18.6478    0.0000 </r>
       <r>   18.6798    0.0000 </r>
       <r>   18.6846    0.0000 </r>
       <r>   18.7800    0.0000 </r>
       <r>   18.8150    0.0000 </r>
       <r>   18.8530    0.0000 </r>
       <r>   18.9096    0.0000 </r>
       <r>   18.9316    0.0000 </r>
       <r>   18.9954    0.0000 </r>
       <r>   19.0552    0.0000 </r>
       <r>   19.0928    0.0000 </r>
       <r>   19.1000    0.0000 </r>
       <r>   19.1413    0.0000 </r>
       <r>   19.1973    0.0000 </r>
       <r>   19.2171    0.0000 </r>
       <r>   19.2815    0.0000 </r>
       <r>   19.2860    0.0000 </r>
       <r>   19.3314    0.0000 </r>
       <r>   19.3498    0.0000 </r>
       <r>   19.4633    0.0000 </r>
       <r>   19.4646    0.0000 </r>
       <r>   19.4968    0.0000 </r>
       <r>   19.5275    0.0000 </r>
       <r>   19.5792    0.0000 </r>
       <r>   19.6075    0.0000 </r>
       <r>   19.6514    0.0000 </r>
       <r>   19.7195    0.0000 </r>
       <r>   19.7321    0.0000 </r>
       <r>   19.7449    0.0000 </r>
       <r>   19.7618    0.0000 </r>
       <r>   19.8108    0.0000 </r>
       <r>   19.8796    0.0000 </r>
       <r>   19.8966    0.0000 </r>
       <r>   19.9915    0.0000 </r>
       <r>   20.0268    0.0000 </r>
       <r>   20.0696    0.0000 </r>
       <r>   20.0868    0.0000 </r>
       <r>   20.1354    0.0000 </r>
       <r>   20.1965    0.0000 </r>
       <r>   20.2370    0.0000 </r>
       <r>   20.3382    0.0000 </r>
      </set>
     </set>
     <set comment="spin 2">
      <set comment="kpoint 1">
       <r>   -3.2007    1.0000 </r>
       <r>   -2.2351    1.0000 </r>
       <r>   -2.0501    1.0000 </r>
       <r>   -1.9873    1.0000 </r>
       <r>   -1.7202    1.0000 </r>
       <r>   -1.6778    1.0000 </r>
       <r>   -1.4614    1.0000 </r>
       <r>   -1.0424    1.0000 </r>
       <r>   -0.8359    1.0000 </r>
       <r>   -0.8140    1.0000 </r>
       <r>   -0.6870    1.0000 </r>
       <r>   -0.4355    1.0000 </r>
       <r>   -0.3298    1.0000 </r>
       <r>   -0.3163    1.0000 </r>
       <r>   -0.2041    1.0000 </r>
       <r>   -0.1666    1.0000 </r>
       <r>   -0.0375    1.0000 </r>
       <r>   -0.0076    1.0000 </r>
       <r>    0.2020    1.0000 </r>
       <r>    0.6031    1.0000 </r>
       <r>    0.6410    1.0000 </r>
       <r>    0.8189    1.0000 </r>
       <r>    0.9379    1.0000 </r>
       <r>    0.9722    1.0000 </r>
       <r>    1.1639    1.0000 </r>
       <r>    1.2215    1.0000 </r>
       <r>    1.3704    1.0000 </r>
       <r>    1.9726    1.0000 </r>
       <r>    2.1054    1.0000 </r>
       <r>    2.2901    1.0000 </r>
       <r>    2.3411    1.0000 </r>
       <r>    2.3956    1.0000 </r>
       <r>    2.8141    1.0000 </r>
       <r>    2.9325    1.0000 </r>
       <r>    3.1026    1.0000 </r>
       <r>    3.1722    1.0000 </r>
       <r>    3.2040    1.0000 </r>
       <r>    3.2434    1.0000 </r>
       <r>    3.2705    1.0000 </r>
       <r>    3.3895    1.0000 </r>
       <r>    3.4094    1.0000 </r>
       <r>    3.4736    1.0000 </r>
       <r>    3.5407    1.0000 </r>
       <r>    3.5718    1.0000 </r>
       <r>    3.6387    1.0000 </r>
       <r>    3.6722    1.0000 </r>
       <r>    3.7074    1.0000 </r>
       <r>    3.7845    1.0000 </r>
       <r>    3.8164    1.0000 </r>
       <r>    3.9044    1.0000 </r>
       <r>    3.9500    1.0000 </r>
       <r>    4.0059    1.0000 </r>
       <r>    4.0267    1.0000 </r>
       <r>    4.0777    1.0000 </r>
       <r>    4.2148    1.0000 </r>
       <r>    4.2464    1.0000 </r>
       <r>    4.3537    1.0000 </r>
       <r>    4.5090    1.0000 </r>
       <r>    4.5301    1.0000 </r>
       <r>    4.6984    1.0000 </r>
       <r>    4.7392    1.0000 </r>
       <r>    4.7752    1.0000 </r>
       <r>    4.8625    1.0000 </r>
       <r>    4.9008    1.0000 </r>
       <r>    4.9938    1.0000 </r>
       <r>    5.0246    1.0000 </r>
       <r>    5.1149    1.0000 </r>
       <r>    5.1311    1.0000 </r>
       <r>    5.1766    1.0000 </r>
       <r>    5.2378    1.0000 </r>
       <r>    5.2647    1.0000 </r>
       <r>    5.3237    1.0000 </r>
       <r>    5.3505    1.0000 </r>
       <r>    5.3846    1.0000 </r>
       <r>    5.4334    1.0000 </r>
       <r>    5.5133    1.0000 </r>
       <r>    5.5428    1.0000 </r>
       <r>    5.6738    1.0000 </r>
       <r>    5.7198    1.0000 </r>
       <r>    5.8126    1.0000 </r>
       <r>    5.8376    1.0000 </r>
       <r>    7.1316    1.0000 </r>
       <r>    7.1372    1.0000 </r>
       <r>    7.1860    1.0000 </r>
       <r>    7.3331    1.0000 </r>
       <r>    7.4326    1.0000 </r>
       <r>    7.5039    1.0000 </r>
       <r>    7.5278    1.0000 </r>
       <r>    7.5727    1.0000 </r>
       <r>    7.7174    1.0000 </r>
       <r>    7.8324    1.0000 </r>
       <r>    7.9262    1.0000 </r>
       <r>    8.0239    1.0000 </r>
       <r>    8.1315    1.0000 </r>
       <r>    8.1671    1.0000 </r>
       <r>    8.2553    1.0000 </r>
       <r>    8.3691    1.0000 </r>
       <r>    8.4547    1.0000 </r>
       <r>    8.4947    1.0000 </r>
       <r>    8.6197    1.0000 </r>
       <r>    8.6420    1.0000 </r>
       <r>    8.7006    1.0000 </r>
       <r>    8.7433    1.0000 </r>
       <r>    8.7831    1.0000 </r>
       <r>    8.7923    1.0000 </r>
       <r>    8.8136    1.0000 </r>
       <r>    8.8776    1.0000 </r>
       <r>    8.9392    1.0000 </r>
       <r>    8.9987    1.0000 </r>
       <r>    9.0228    1.0000 </r>
       <r>    9.0490    1.0000 </r>
       <r>    9.1060    1.0000 </r>
       <r>    9.1374    1.0000 </r>
       <r>    9.1909    1.0000 </r>
       <r>    9.2258    1.0000 </r>
       <r>    9.2961    1.0000 </r>
       <r>    9.3310    1.0000 </r>
       <r>    9.4038    1.0000 </r>
       <r>    9.5022    1.0000 </r>
       <r>    9.5084    1.0000 </r>
       <r>    9.5383    1.0000 </r>
       <r>    9.5924    1.0000 </r>
       <r>    9.7179    1.0000 </r>
       <r>    9.7726    1.0000 </r>
       <r>    9.8273    1.0000 </r>
       <r>    9.8738    1.0000 </r>
       <r>    9.8978    1.0000 </r>
       <r>    9.9463    1.0000 </r>
       <r>   10.0515    1.0000 </r>
       <r>   10.1320    1.0000 </r>
       <r>   10.1999    1.0000 </r>
       <r>   10.2121    1.0000 </r>
       <r>   10.2784    1.0000 </r>
       <r>   10.3441    1.0000 </r>
       <r>   10.3927    1.0000 </r>
       <r>   10.4308    1.0000 </r>
       <r>   10.4895    1.0000 </r>
       <r>   10.5588    1.0000 </r>
       <r>   10.5897    1.0000 </r>
       <r>   10.6404    1.0000 </r>
       <r>   10.7183    1.0000 </r>
       <r>   10.7247    1.0000 </r>
       <r>   10.7659    1.0000 </r>
       <r>   10.8202    1.0000 </r>
       <r>   10.9254    1.0000 </r>
       <r>   10.9746    1.0000 </r>
       <r>   11.0257    1.0000 </r>
       <r>   11.1481    1.0000 </r>
       <r>   11.2121    1.0000 </r>
       <r>   11.2740    1.0000 </r>
       <r>   11.3289    1.0000 </r>
       <r>   11.4092    1.0000 </r>
       <r>   11.4425    1.0000 </r>
       <r>   11.4770    1.0000 </r>
       <r>   11.5487    1.0000 </r>
       <r>   11.5964    1.0000 </r>
       <r>   11.6237    1.0000 </r>
       <r>   11.6634    1.0000 </r>
       <r>   11.7221    1.0000 </r>
       <r>   11.7806    1.0000 </r>
       <r>   11.8073    1.0000 </r>
       <r>   11.8943    1.0000 </r>
       <r>   11.9386    1.0000 </r>
       <r>   11.9956    1.0000 </r>
       <r>   12.0619    1.0000 </r>
       <r>   12.1157    1.0000 </r>
       <r>   12.2045    1.0000 </r>
       <r>   12.2479    1.0000 </r>
       <r>   12.3396    1.0000 </r>
       <r>   12.4027    1.0000 </r>
       <r>   12.5096    1.0000 </r>
       <r>   12.7174    1.0000 </r>
       <r>   12.8168    1.0000 </r>
       <r>   12.9352    1.0000 </r>
       <r>   13.0452    1.0000 </r>
       <r>   13.1348    1.0000 </r>
       <r>   13.1950    1.0000 </r>
       <r>   13.2555    1.0000 </r>
       <r>   13.5083    1.0000 </r>
       <r>   13.5537    1.0000 </r>
       <r>   13.6112    1.0000 </r>
       <r>   13.6364    1.0000 </r>
       <r>   13.6536    1.0000 </r>
       <r>   13.7461    1.0000 </r>
       <r>   13.7983    1.0000 </r>
       <r>   13.8401    1.0000 </r>
       <r>   13.9130    1.0000 </r>
       <r>   13.9875    1.0000 </r>
       <r>   14.0349    1.0000 </r>
       <r>   14.1357    1.0000 </r>
       <r>   14.1758    1.0000 </r>
       <r>   14.2476    1.0000 </r>
       <r>   14.2809    1.0000 </r>
       <r>   14.3271    1.0000 </r>
       <r>   14.3443    1.0000 </r>
       <r>   14.3979    1.0000 </r>
       <r>   14.4790    1.0000 </r>
[...]
       <r>    -1.2709     0.0186     7.0000 </r>
       <r>    -1.1845     0.0003     7.0000 </r>
       <r>    -1.0982     0.6628     7.0572 </r>
       <r>    -1.0119     8.6739     7.8059 </r>
       <r>    -0.9256     2.3171     8.0059 </r>
       <r>    -0.8393     8.0172     8.6978 </r>
       <r>    -0.7530    14.8457     9.9792 </r>
       <r>    -0.6667     8.5550    10.7176 </r>
       <r>    -0.5804     3.2577    10.9987 </r>
       <r>    -0.4941     0.5811    11.0489 </r>
       <r>    -0.4078     8.7313    11.8025 </r>
       <r>    -0.3214    14.2787    13.0349 </r>
       <r>    -0.2351    13.5145    14.2013 </r>
       <r>    -0.1488    16.5997    15.6341 </r>
       <r>    -0.0625     7.6910    16.2979 </r>
       <r>     0.0238    17.0707    17.7713 </r>
       <r>     0.1101     2.6990    18.0042 </r>
       <r>     0.1964     5.0196    18.4375 </r>
       <r>     0.2827     6.3878    18.9888 </r>
       <r>     0.3690     0.1296    19.0000 </r>
       <r>     0.4554     0.0002    19.0000 </r>
       <r>     0.5417     0.5036    19.0435 </r>
       <r>     0.6280    12.4092    20.1145 </r>
       <r>     0.7143    10.0454    20.9816 </r>
       <r>     0.8006     3.7128    21.3020 </r>
       <r>     0.8869     8.7248    22.0550 </r>
       <r>     0.9732    15.0274    23.3521 </r>
       <r>     1.0595     7.4436    23.9945 </r>
       <r>     1.1458     3.7839    24.3211 </r>
       <r>     1.2321    14.7220    25.5918 </r>
       <r>     1.3185     5.5143    26.0677 </r>
       <r>     1.4048     8.8813    26.8343 </r>
       <r>     1.4911     1.9163    26.9997 </r>
       <r>     1.5774     0.0037    27.0000 </r>
       <r>     1.6637     0.0000    27.0000 </r>
       <r>     1.7500     0.0000    27.0000 </r>
       <r>     1.8363     0.0007    27.0001 </r>
       <r>     1.9226     0.9118    27.0788 </r>
       <r>     2.0089     8.9490    27.8512 </r>
       <r>     2.0953     6.2070    28.3869 </r>
       <r>     2.1816     6.9353    28.9855 </r>
       <r>     2.2679     3.4613    29.2842 </r>
       <r>     2.3542    16.7513    30.7300 </r>
       <r>     2.4405    13.5048    31.8956 </r>
       <r>     2.5268     1.2080    31.9999 </r>
       <r>     2.6131     0.0012    32.0000 </r>
       <r>     2.6994     0.0068    32.0006 </r>
       <r>     2.7857     2.4367    32.2109 </r>
       <r>     2.8720     9.0611    32.9930 </r>
       <r>     2.9584     8.9783    33.7679 </r>
       <r>     3.0447     3.2702    34.0502 </r>
       <r>     3.1310    10.2098    34.9314 </r>
       <r>     3.2173    22.1316    36.8416 </r>
       <r>     3.3036    22.5496    38.7878 </r>
       <r>     3.3899    11.7766    39.8043 </r>
       <r>     3.4762    20.0000    41.5305 </r>
       <r>     3.5625    18.6225    43.1378 </r>
       <r>     3.6488    20.4131    44.8997 </r>
       <r>     3.7351    22.4296    46.8356 </r>
       <r>     3.8215    18.3318    48.4178 </r>
       <r>     3.9078    14.3034    49.6524 </r>
       <r>     3.9941    20.7590    51.4441 </r>
       <r>     4.0804    23.2177    53.4480 </r>
       <r>     4.1667     7.4731    54.0930 </r>
       <r>     4.2530    15.5673    55.4366 </r>
       <r>     4.3393    10.4376    56.3375 </r>
       <r>     4.4256     7.5578    56.9898 </r>
       <r>     4.5119     9.8272    57.8380 </r>
       <r>     4.5983    13.1118    58.9697 </r>
       <r>     4.6846     5.1452    59.4138 </r>
       <r>     4.7709    21.2756    61.2501 </r>
       <r>     4.8572    14.9256    62.5383 </r>
       <r>     4.9435    16.5108    63.9634 </r>
       <r>     5.0298    16.8100    65.4143 </r>
       <r>     5.1161    17.0751    66.8880 </r>
       <r>     5.2024    23.7424    68.9373 </r>
       <r>     5.2887    22.5254    70.8814 </r>
       <r>     5.3750    25.9957    73.1251 </r>
       <r>     5.4614    19.9974    74.8511 </r>
       <r>     5.5477    17.8154    76.3888 </r>
       <r>     5.6340     8.6165    77.1325 </r>
       <r>     5.7203    14.8722    78.4161 </r>
       <r>     5.8066    13.8991    79.6157 </r>
       <r>     5.8929    15.2226    80.9296 </r>
       <r>     5.9792     0.8152    81.0000 </r>
       <r>     6.0655     0.0004    81.0000 </r>
       <r>     6.1518     0.0000    81.0000 </r>
       <r>     6.2382     0.0000    81.0000 </r>
       <r>     6.3245     0.0000    81.0000 </r>
       <r>     6.4108     0.0000    81.0000 </r>
       <r>     6.4971     0.0000    81.0000 </r>
       <r>     6.5834     0.0000    81.0000 </r>
       <r>     6.6697     0.0000    81.0000 </r>
       <r>     6.7560     0.0000    81.0000 </r>
       <r>     6.8423     0.0000    81.0000 </r>
       <r>     6.9286     0.0000    81.0000 </r>
       <r>     7.0149     0.0088    81.0008 </r>
       <r>     7.1013     4.1408    81.3581 </r>
       <r>     7.1876    23.4689    83.3838 </r>
       <r>     7.2739     7.6083    84.0404 </r>
       <r>     7.3602     8.7842    84.7986 </r>
       <r>     7.4465    10.6218    85.7154 </r>
       <r>     7.5328    20.4063    87.4767 </r>
       <r>     7.6191    16.5214    88.9026 </r>
       <r>     7.7054     5.3840    89.3673 </r>
       <r>     7.7917     8.5746    90.1074 </r>
       <r>     7.8781    10.2079    90.9885 </r>
       <r>     7.9644    10.6289    91.9059 </r>
       <r>     8.0507    10.2059    92.7867 </r>
       <r>     8.1370    11.2613    93.7587 </r>
       <r>     8.2233    15.7903    95.1216 </r>
       <r>     8.3096     9.9908    95.9839 </r>
       <r>     8.3959     9.7668    96.8268 </r>
       <r>     8.4822    15.2540    98.1434 </r>
       <r>     8.5685    10.7826    99.0741 </r>
       <r>     8.6548    17.5172   100.5860 </r>
       <r>     8.7412    22.8654   102.5595 </r>
       <r>     8.8275    33.5865   105.4584 </r>
       <r>     8.9138    18.8989   107.0896 </r>
       <r>     9.0001    20.0225   108.8177 </r>
       <r>     9.0864    27.3481   111.1781 </r>
       <r>     9.1727    23.2174   113.1821 </r>
       <r>     9.2590    20.6809   114.9670 </r>
       <r>     9.3453    19.2025   116.6244 </r>
       <r>     9.4316    13.8649   117.8211 </r>
       <r>     9.5180    20.3507   119.5776 </r>
       <r>     9.6043    23.3888   121.5963 </r>
       <r>     9.6906     7.3116   122.2273 </r>
       <r>     9.7769    15.6779   123.5805 </r>
       <r>     9.8632    21.0323   125.3958 </r>
       <r>     9.9495    23.8018   127.4502 </r>
       <r>    10.0358    10.1466   128.3259 </r>
       <r>    10.1221    12.2924   129.3869 </r>
       <r>    10.2084    19.4166   131.0627 </r>
       <r>    10.2947    19.5386   132.7491 </r>
       <r>    10.3811    17.9987   134.3026 </r>
       <r>    10.4674    20.8601   136.1031 </r>
       <r>    10.5537    16.9823   137.5688 </r>
       <r>    10.6400    21.5532   139.4291 </r>
       <r>    10.7263    20.9345   141.2359 </r>
       <r>    10.8126    24.0630   143.3128 </r>
       <r>    10.8989    10.6317   144.2304 </r>
       <r>    10.9852    17.0162   145.6991 </r>
       <r>    11.0715    14.0837   146.9147 </r>
       <r>    11.1579     8.7736   147.6720 </r>
       <r>    11.2442    15.6482   149.0226 </r>
       <r>    11.3305    16.8387   150.4759 </r>
       <r>    11.4168    15.9851   151.8556 </r>
       <r>    11.5031    22.8199   153.8252 </r>
       <r>    11.5894    19.1809   155.4807 </r>
       <r>    11.6757    25.1250   157.6493 </r>
       <r>    11.7620    18.7550   159.2680 </r>
       <r>    11.8483    19.5044   160.9514 </r>
       <r>    11.9346    16.4480   162.3711 </r>
       <r>    12.0210    17.4942   163.8810 </r>
       <r>    12.1073    16.5364   165.3083 </r>
       <r>    12.1936    12.9613   166.4270 </r>
       <r>    12.2799    16.4494   167.8467 </r>
       <r>    12.3662    12.4906   168.9248 </r>
       <r>    12.4525    12.1418   169.9728 </r>
       <r>    12.5388     9.5301   170.7953 </r>
       <r>    12.6251     2.4175   171.0040 </r>
       <r>    12.7114     4.9829   171.4340 </r>
       <r>    12.7978     9.8468   172.2839 </r>
       <r>    12.8841     8.8262   173.0457 </r>
       <r>    12.9704     9.4055   173.8575 </r>
       <r>    13.0567     9.0729   174.6406 </r>
       <r>    13.1430    11.8126   175.6602 </r>
       <r>    13.2293    16.2107   177.0593 </r>
       <r>    13.3156    10.3785   177.9551 </r>
       <r>    13.4019     0.5355   178.0013 </r>
       <r>    13.4882     3.6621   178.3174 </r>
       <r>    13.5745    18.2764   179.8948 </r>
       <r>    13.6609    27.4495   182.2640 </r>
       <r>    13.7472    15.3087   183.5853 </r>
       <r>    13.8335    19.5283   185.2708 </r>
       <r>    13.9198    15.3134   186.5925 </r>
       <r>    14.0061    15.1960   187.9041 </r>
       <r>    14.0924    13.4618   189.0660 </r>
       <r>    14.1787    16.0166   190.4484 </r>
       <r>    14.2650    18.6934   192.0618 </r>
       <r>    14.3513    27.1137   194.4020 </r>
       <r>    14.4377    18.4271   195.9925 </r>
       <r>    14.5240    17.3519   197.4901 </r>
       <r>    14.6103    19.9975   199.2161 </r>
       <r>    14.6966    27.7239   201.6090 </r>
       <r>    14.7829    21.1054   203.4306 </r>
       <r>    14.8692    19.1769   205.0858 </r>
       <r>    14.9555    22.4507   207.0235 </r>
       <r>    15.0418    17.4507   208.5297 </r>
       <r>    15.1281    13.4748   209.6927 </r>
       <r>    15.2144    29.0657   212.2014 </r>
       <r>    15.3008    39.1074   215.5768 </r>
       <r>    15.3871    28.8503   218.0668 </r>
       <r>    15.4734    20.3808   219.8259 </r>
       <r>    15.5597    25.8319   222.0555 </r>
       <r>    15.6460    17.9361   223.6036 </r>
       <r>    15.7323    21.7443   225.4803 </r>
       <r>    15.8186    26.9829   227.8092 </r>
       <r>    15.9049    30.8764   230.4742 </r>
       <r>    15.9912    16.3294   231.8836 </r>
       <r>    16.0776    18.0171   233.4387 </r>
       <r>    16.1639    20.9902   235.2503 </r>
       <r>    16.2502    19.3701   236.9222 </r>
       <r>    16.3365    24.5157   239.0381 </r>
       <r>    16.4228    16.3734   240.4513 </r>
       <r>    16.5091    18.0471   242.0090 </r>
       <r>    16.5954    13.3367   243.1601 </r>
       <r>    16.6817    10.5349   244.0694 </r>
       <r>    16.7680    11.6227   245.0725 </r>
       <r>    16.8543    19.2049   246.7301 </r>
       <r>    16.9407    16.9800   248.1957 </r>
       <r>    17.0270    13.2558   249.3398 </r>
       <r>    17.1133     7.4407   249.9820 </r>
       <r>    17.1996     1.1366   250.0801 </r>
       <r>    17.2859     8.9212   250.8501 </r>
       <r>    17.3722     1.7341   250.9997 </r>
       <r>    17.4585     0.0030   251.0000 </r>
       <r>    17.5448     0.3325   251.0287 </r>
       <r>    17.6311     7.9911   251.7184 </r>
       <r>    17.7175     9.9787   252.5797 </r>
       <r>    17.8038     4.8881   253.0016 </r>
       <r>    17.8901     5.7498   253.4978 </r>
       <r>    17.9764    14.2170   254.7249 </r>
       <r>    18.0627     3.3352   255.0128 </r>
       <r>    18.1490     6.7531   255.5956 </r>
       <r>    18.2353     7.3879   256.2333 </r>
       <r>    18.3216    13.1280   257.3664 </r>
       <r>    18.4079    16.9756   258.8316 </r>
       <r>    18.4942    21.4329   260.6814 </r>
       <r>    18.5806    18.2330   262.2551 </r>
       <r>    18.6669    24.2336   264.3468 </r>
       <r>    18.7532    21.6298   266.2136 </r>
       <r>    18.8395    21.6001   268.0780 </r>
       <r>    18.9258    23.4785   270.1044 </r>
       <r>    19.0121    19.5301   271.7900 </r>
       <r>    19.0984    25.9929   274.0335 </r>
       <r>    19.1847    27.5707   276.4131 </r>
       <r>    19.2710    26.2891   278.6822 </r>
       <r>    19.3574    30.4330   281.3089 </r>
       <r>    19.4437    15.2788   282.6276 </r>
       <r>    19.5300    31.8498   285.3766 </r>
       <r>    19.6163    25.6991   287.5947 </r>
       <r>    19.7026    23.2507   289.6014 </r>
       <r>    19.7889    37.8627   292.8694 </r>
       <r>    19.8752    23.7063   294.9155 </r>
       <r>    19.9615    15.8682   296.2851 </r>
       <r>    20.0478    23.6085   298.3227 </r>
       <r>    20.1341    27.6610   300.7102 </r>
       <r>    20.2205    17.2726   302.2010 </r>
       <r>    20.3068    16.0323   303.5847 </r>
       <r>    20.3931     4.7710   303.9965 </r>
       <r>    20.4794     0.0403   304.0000 </r>
       <r>    20.5657     0.0000   304.0000 </r>
       <r>    20.6520     0.0000   304.0000 </r>
       <r>    20.7383     0.0000   304.0000 </r>
       <r>    20.8246     0.0000   304.0000 </r>
       <r>    20.9109     0.0000   304.0000 </r>
       <r>    20.9973     0.0000   304.0000 </r>
       <r>    21.0836     0.0000   304.0000 </r>
       <r>    21.1699     0.0000   304.0000 </r>
       <r>    21.2562     0.0000   304.0000 </r>
       <r>    21.3425     0.0000   304.0000 </r>
       <r>    21.4288     0.0000   304.0000 </r>
       <r>    21.5151     0.0000   304.0000 </r>
      </set>
     </set>
    </array>
   </total>
  </dos>
 </calculation>
 <structure name="finalpos" >
  <crystal>
   <varray name="basis" >
    <v>      10.21149500       0.00000000       0.00000000 </v>
    <v>       0.00000000      10.21149500       0.00000000 </v>
    <v>       0.00000000       0.00000000      10.21149500 </v>
   </varray>
   <i name="volume">   1064.79986425 </i>
   <varray name="rec_basis" >
    <v>       0.09792885       0.00000000       0.00000000 </v>
    <v>       0.00000000       0.09792885       0.00000000 </v>
    <v>       0.00000000       0.00000000       0.09792885 </v>
   </varray>
  </crystal>
  <varray name="positions" >
   <v>       0.85939500       0.40404700       0.35324200 </v>
   <v>       0.45164800       0.08359360       0.35712500 </v>
   <v>       0.88938900       0.79312200       0.80742500 </v>
   <v>       0.98328500       0.07462830       0.60860900 </v>
   <v>       0.63231200       0.96814800       0.61095200 </v>
   <v>       0.29282000       0.81913500       0.74355800 </v>
   <v>       0.68941100       0.70760000       0.63060200 </v>
   <v>       0.55241800       0.62910400       0.02464250 </v>
   <v>       0.86139700       0.60316300       0.24331800 </v>
   <v>       0.33116000       0.68204500       0.57366100 </v>
   <v>       0.10098700       0.22480400       0.19532700 </v>
   <v>       0.30313800       0.68909400       0.33500700 </v>
   <v>       0.90452100       0.64534900       0.64543200 </v>
   <v>       0.23944100       0.04591200       0.26397800 </v>
   <v>       0.83450600       0.89019400       0.62498800 </v>
   <v>       0.15134600       0.58779600       0.92899300 </v>
   <v>       0.22394400       0.87059400       0.41427700 </v>
   <v>       0.09121780       0.67002900       0.28464600 </v>
   <v>       0.87248800       0.83280100       0.21814000 </v>
   <v>       0.57996600       0.32921300       0.57369400 </v>
   <v>       0.58363200       0.40489100       0.90428400 </v>
   <v>       0.07809260       0.88402600       0.56522500 </v>
   <v>       0.21555500       0.35046500       0.06543610 </v>
   <v>       0.56810400       0.02202710       0.96660100 </v>
   <v>       0.67972600       0.99393900       0.34535100 </v>
   <v>       0.54845700       0.33419900       0.11754800 </v>
   <v>       0.12005900       0.81087000       0.91305400 </v>
   <v>       0.00128000       0.22532300       0.81348400 </v>
   <v>       0.28716500       0.00496000       0.94707900 </v>
   <v>       0.81640700       0.34343800       0.54603200 </v>
   <v>       0.92425900       0.03382240       0.17733000 </v>
   <v>       0.20774400       0.58321200       0.13529100 </v>
   <v>       0.64598300       0.68396600       0.20046900 </v>
   <v>       0.10145100       0.97701700       0.07207950 </v>
   <v>       0.03890480       0.43006600       0.20726500 </v>
   <v>       0.73242700       0.55811400       0.46886400 </v>
   <v>       0.26728700       0.14678900       0.68151900 </v>
   <v>       0.77463000       0.54078400       0.06495080 </v>
   <v>       0.00185580       0.70823500       0.08014630 </v>
   <v>       0.70506800       0.60978400       0.86607200 </v>
   <v>       0.01389880       0.40377600       0.95282900 </v>
   <v>       0.70413800       0.77602800       0.40558000 </v>
   <v>       0.45722100       0.40991000       0.39055900 </v>
   <v>       0.22643400       0.47998300       0.32616700 </v>
   <v>       0.50979300       0.79906600       0.58559400 </v>
   <v>       0.46352500       0.97219400       0.77134000 </v>
   <v>       0.85920400       0.93526900       0.43671400 </v>
   <v>       0.77272500       0.06610930       0.77910300 </v>
   <v>       0.39555700       0.18070100       0.85635300 </v>
   <v>       0.13305300       0.97149900       0.75821000 </v>
   <v>       0.47630100       0.76083200       0.18971800 </v>
   <v>       0.11808200       0.66409000       0.49185600 </v>
   <v>       0.18277500       0.08025360       0.47931900 </v>
   <v>       0.15938800       0.17600900       0.94874600 </v>
   <v>       0.41896200       0.19967600       0.08034070 </v>
   <v>       0.57585100       0.16891000       0.73168900 </v>
   <v>       0.61606100       0.25684900       0.34030300 </v>
   <v>       0.91017200       0.69037400       0.44069800 </v>
   <v>       0.35800800       0.67021300       0.01109940 </v>
   <v>       0.31643500       0.29448600       0.26106700 </v>
   <v>       0.65175400       0.86151100       0.84254500 </v>
   <v>       0.44888600       0.83821700       0.93643700 </v>
   <v>       0.50575100       0.54161100       0.56923200 </v>
   <v>       0.61202700       0.12499000       0.15473000 </v>
   <v>       0.50656300       0.67522100       0.78604200 </v>
   <v>       0.39368400       0.51146800       0.18201200 </v>
   <v>       0.21051400       0.36308700       0.83545000 </v>
   <v>       0.99526300       0.25683800       0.55696600 </v>
   <v>       0.11066200       0.69603400       0.69518000 </v>
   <v>       0.81723000       0.19210000       0.32661400 </v>
   <v>       0.43176100       0.35754400       0.74084800 </v>
   <v>       0.76629900       0.12070900       0.54173700 </v>
   <v>       0.01974790       0.47979700       0.52791900 </v>
   <v>       0.69822800       0.47807500       0.68911400 </v>
   <v>       0.77317100       0.80782800       0.99958100 </v>
   <v>       0.29442200       0.47056600       0.52585400 </v>
   <v>       0.22561500       0.82731100       0.16840900 </v>
   <v>       0.92628300       0.59368700       0.90621100 </v>
   <v>       0.36252600       0.44639100       0.95841100 </v>
   <v>       0.78800300       0.04645030       0.02609340 </v>
   <v>       0.96290400       0.42808400       0.72774000 </v>
   <v>       0.28616600       0.56013300       0.73176100 </v>
   <v>       0.17168100       0.33188200       0.63799200 </v>
   <v>       0.36127400       0.98588900       0.58113300 </v>
   <v>       0.01614630       0.13809500       0.36864000 </v>
   <v>       0.77988200       0.27207900       0.74525900 </v>
   <v>       0.45091900       0.86707800       0.38630700 </v>
   <v>       0.92821400       0.23584600       0.03588960 </v>
   <v>       0.67447500       0.19926700       0.95078300 </v>
   <v>       0.37684900       0.24028000       0.53223900 </v>
   <v>       0.77453100       0.33221800       0.12936600 </v>
   <v>       0.54563200       0.11349800       0.53166100 </v>
   <v>       0.39656400       0.97524700       0.13633900 </v>
   <v>       0.64541300       0.47247500       0.26737900 </v>
   <v>       0.95167200       0.02792180       0.91914400 </v>
   <v>       0.11622600       0.33277100       0.41056200 </v>
   <v>       0.64693500       0.90758400       0.13301700 </v>
   <v>       0.51623700       0.61711900       0.37377600 </v>
   <v>       0.80865900       0.41362000       0.88937600 </v>
   <v>       0.04077520       0.90695200       0.32927300 </v>
  </varray>
 </structure>
</modeling>
