unknown system                          
           1
    10.211495    0.000000    0.000000
     0.000000   10.211495    0.000000
     0.000000    0.000000   10.211495
   Si
 100
Direct configuration=     1
   0.85939500  0.40404700  0.35324200
   0.45164800  0.08359360  0.35712500
   0.88938900  0.79312200  0.80742500
   0.98328500  0.07462830  0.60860900
   0.63231200  0.96814800  0.61095200
   0.29282000  0.81913500  0.74355800
   0.68941100  0.70760000  0.63060200
   0.55241800  0.62910400  0.02464250
   0.86139700  0.60316300  0.24331800
   0.33116000  0.68204500  0.57366100
   0.10098700  0.22480400  0.19532700
   0.30313800  0.68909400  0.33500700
   0.90452100  0.64534900  0.64543200
   0.23944100  0.04591200  0.26397800
   0.83450600  0.89019400  0.62498800
   0.15134600  0.58779600  0.92899300
   0.22394400  0.87059400  0.41427700
   0.09121780  0.67002900  0.28464600
   0.87248800  0.83280100  0.21814000
   0.57996600  0.32921300  0.57369400
   0.58363200  0.40489100  0.90428400
   0.07809260  0.88402600  0.56522500
   0.21555500  0.35046500  0.06543610
   0.56810400  0.02202710  0.96660100
   0.67972600  0.99393900  0.34535100
   0.54845700  0.33419900  0.11754800
   0.12005900  0.81087000  0.91305400
   0.00128000  0.22532300  0.81348400
   0.28716500  0.00496000  0.94707900
   0.81640700  0.34343800  0.54603200
   0.92425900  0.03382240  0.17733000
   0.20774400  0.58321200  0.13529100
   0.64598300  0.68396600  0.20046900
   0.10145100  0.97701700  0.07207950
   0.03890480  0.43006600  0.20726500
   0.73242700  0.55811400  0.46886400
   0.26728700  0.14678900  0.68151900
   0.77463000  0.54078400  0.06495080
   0.00185580  0.70823500  0.08014630
   0.70506800  0.60978400  0.86607200
   0.01389880  0.40377600  0.95282900
   0.70413800  0.77602800  0.40558000
   0.45722100  0.40991000  0.39055900
   0.22643400  0.47998300  0.32616700
   0.50979300  0.79906600  0.58559400
   0.46352500  0.97219400  0.77134000
   0.85920400  0.93526900  0.43671400
   0.77272500  0.06610930  0.77910300
   0.39555700  0.18070100  0.85635300
   0.13305300  0.97149900  0.75821000
   0.47630100  0.76083200  0.18971800
   0.11808200  0.66409000  0.49185600
   0.18277500  0.08025360  0.47931900
   0.15938800  0.17600900  0.94874600
   0.41896200  0.19967600  0.08034070
   0.57585100  0.16891000  0.73168900
   0.61606100  0.25684900  0.34030300
   0.91017200  0.69037400  0.44069800
   0.35800800  0.67021300  0.01109940
   0.31643500  0.29448600  0.26106700
   0.65175400  0.86151100  0.84254500
   0.44888600  0.83821700  0.93643700
   0.50575100  0.54161100  0.56923200
   0.61202700  0.12499000  0.15473000
   0.50656300  0.67522100  0.78604200
   0.39368400  0.51146800  0.18201200
   0.21051400  0.36308700  0.83545000
   0.99526300  0.25683800  0.55696600
   0.11066200  0.69603400  0.69518000
   0.81723000  0.19210000  0.32661400
   0.43176100  0.35754400  0.74084800
   0.76629900  0.12070900  0.54173700
   0.01974790  0.47979700  0.52791900
   0.69822800  0.47807500  0.68911400
   0.77317100  0.80782800  0.99958100
   0.29442200  0.47056600  0.52585400
   0.22561500  0.82731100  0.16840900
   0.92628300  0.59368700  0.90621100
   0.36252600  0.44639100  0.95841100
   0.78800300  0.04645030  0.02609340
   0.96290400  0.42808400  0.72774000
   0.28616600  0.56013300  0.73176100
   0.17168100  0.33188200  0.63799200
   0.36127400  0.98588900  0.58113300
   0.01614630  0.13809500  0.36864000
   0.77988200  0.27207900  0.74525900
   0.45091900  0.86707800  0.38630700
   0.92821400  0.23584600  0.03588960
   0.67447500  0.19926700  0.95078300
   0.37684900  0.24028000  0.53223900
   0.77453100  0.33221800  0.12936600
   0.54563200  0.11349800  0.53166100
   0.39656400  0.97524700  0.13633900
   0.64541300  0.47247500  0.26737900
   0.95167200  0.02792180  0.91914400
   0.11622600  0.33277100  0.41056200
   0.64693500  0.90758400  0.13301700
   0.51623700  0.61711900  0.37377600
   0.80865900  0.41362000  0.88937600
   0.04077520  0.90695200  0.32927300
