ITEM: TIMESTEP
0
ITEM: NUMBER OF ATOMS
100
ITEM: BOX BOUNDS xy xz yz pp pp pp
0.0000000000000000e+00 1.0211494999999999e+01 0.0000000000000000e+00
0.0000000000000000e+00 1.0211494999999999e+01 0.0000000000000000e+00
0.0000000000000000e+00 1.0211494999999999e+01 0.0000000000000000e+00
ITEM: ATOMS id type xs ys zs
1 1 0.824421 0.770977 0.0928122
2 1 0.818636 0.898819 0.903075
3 1 0.694221 0.138888 0.425562
4 1 0.791498 0.222181 0.856091
5 1 0.303212 0.988987 0.40429
6 1 0.613668 0.799947 0.847364
7 1 0.495341 0.579459 0.437023
8 1 0.503893 0.548427 0.217858
9 1 0.55209 0.962022 0.280335
10 1 0.0130815 0.998976 0.877737
11 1 0.184543 0.188612 0.440779
12 1 0.808211 0.417764 0.415688
13 1 0.971163 0.218293 0.775508
14 1 0.77081 0.317472 0.631958
15 1 0.889927 0.180483 0.524168
16 1 0.0834204 0.99426 0.430635
17 1 0.0503309 0.0841367 0.627036
18 1 0.184903 0.261634 0.979408
19 1 0.439753 0.196983 0.363798
20 1 0.603015 0.729731 0.300612
21 1 0.572029 0.690558 0.0455051
22 1 0.00390227 0.386226 0.616989
23 1 0.618163 0.248041 0.997918
24 1 0.3251 0.661782 0.317293
25 1 0.894154 0.077849 0.316811
26 1 0.0187851 0.377718 0.125543
27 1 0.177852 0.0490307 0.0236077
28 1 0.0448348 0.35537 0.382579
29 1 0.293347 0.440043 0.0712715
30 1 0.636204 0.0756469 0.846421
31 1 0.66962 0.899169 0.457174
32 1 0.181767 0.13082 0.814451
33 1 0.229585 0.816063 0.0499592
34 1 0.0944326 0.582812 0.428588
35 1 0.232787 0.296149 0.246276
36 1 0.0194301 0.798021 0.979657
37 1 0.409816 0.812703 0.19569
38 1 0.738046 0.581043 0.220938
39 1 0.100318 0.131165 0.235687
40 1 0.488405 0.0512922 0.0701497
41 1 0.781737 0.651061 0.904129
42 1 0.416045 0.496869 0.645576
43 1 0.969313 0.9547 0.144938
44 1 0.891441 0.588376 0.569387
45 1 0.45722 0.285221 0.567971
46 1 0.202608 0.490443 0.600174
47 1 0.863317 0.257458 0.22209
48 1 0.637494 0.141314 0.626924
49 1 0.41565 0.0730233 0.814096
50 1 0.79505 0.0750182 0.0644126
51 1 0.365219 0.299233 0.78697
52 1 0.143103 0.501465 0.243619
53 1 0.251184 0.93178 0.826579
54 1 0.964373 0.615802 0.816824
55 1 0.478575 0.322713 0.178612
56 1 0.026084 0.838568 0.73838
57 1 0.0995965 0.644163 0.63602
58 1 0.745669 0.703304 0.482174
59 1 0.112099 0.613451 0.0140048
60 1 0.621708 0.941605 0.671816
61 1 0.611312 0.89921 0.056713
62 1 0.317311 0.0920796 0.622198
63 1 0.651894 0.50056 0.581454
64 1 0.110752 0.731774 0.23321
65 1 0.45153 0.463529 0.921879
66 1 0.186716 0.925805 0.234351
67 1 0.930174 0.580267 0.284475
68 1 0.171323 0.268989 0.651071
69 1 0.805629 0.449968 0.800378
70 1 0.797865 0.769249 0.729309
71 1 0.581074 0.305202 0.780355
72 1 0.247619 0.468316 0.82685
73 1 0.195374 0.703774 0.813616
74 1 0.583042 0.715596 0.616345
75 1 0.641016 0.487651 0.0230885
76 1 0.430757 0.798356 0.430375
77 1 0.417829 0.842269 0.945821
78 1 0.311638 0.446165 0.422603
79 1 0.908802 0.548188 0.0605606
80 1 0.624524 0.55739 0.790094
81 1 0.59704 0.362343 0.420574
82 1 0.19602 0.793411 0.431328
83 1 0.82375 0.017453 0.717899
84 1 0.320184 0.70758 0.600911
85 1 0.382527 0.230494 0.98881
86 1 0.635944 0.163329 0.197714
87 1 0.340888 0.643074 0.0414479
88 1 0.874535 0.962105 0.499572
89 1 0.404419 0.647229 0.812542
90 1 0.772486 0.919849 0.23772
91 1 0.504512 0.0206493 0.490692
92 1 0.682768 0.380244 0.225292
93 1 0.425316 0.861065 0.698257
94 1 0.823239 0.35886 0.00870274
95 1 0.913347 0.786983 0.308456
96 1 0.982473 0.178051 0.0340532
97 1 0.04054 0.408859 0.911988
98 1 0.991285 0.802701 0.518056
99 1 0.195313 0.913428 0.611718
100 1 0.335034 0.102839 0.190579
