BEGIN_CFG
 Size
    100
 Supercell
        10.211495      0.000000      0.000000
         0.000000     10.211495      0.000000
         0.000000      0.000000     10.211495
 AtomData:  id type       cartes_x      cartes_y      cartes_z           fx          fy          fz
             1    0       8.416616      7.868464      0.946696    -0.692353   -1.526117   -0.311168
             2    0       8.356049      9.180355      9.227390    -1.250693    0.726981    1.969326
             3    0       7.088804      1.420457      4.336918    -0.108225    0.779492   -3.049838
             4    0       8.076316      2.265411      8.742374    -2.058214   -1.206047    0.105944
             5    0       3.101898     10.102299      4.129183     1.962811    1.151462    0.264769
             6    0       6.263213      8.167950      8.652765    -1.134746   -0.270759   -0.045205
             7    0       5.059471      5.914853      4.466415     0.453821   -0.781018    1.306884
             8    0       5.141816      5.596234      2.221206    -1.318447   -1.419404   -1.208504
             9    0       5.635824      9.826487      2.860011    -0.693962    1.028977   -0.919730
            10    0       0.131822     10.205782      8.964223    -0.638668    1.701548    0.426659
            11    0       1.887695      1.929180      4.503868     1.152923    1.123538    1.000933
            12    0       8.259014      4.266616      4.244299     2.105647    0.215929   -0.182904
            13    0       9.925261      2.231848      7.918494     2.857161    1.012376   -0.171792
            14    0       7.871108      3.243599      6.453887    -0.004156    0.619869    0.224670
            15    0       9.089685      1.847845      5.349375     0.805765    1.756799   -1.138708
            16    0       0.848508     10.152996      4.392422    -1.185569    0.027653   -1.776060
            17    0       0.514211      0.853630      6.404027     0.092671   -1.974952    0.363509
            18    0       1.881618      2.678545     10.005077    -2.208038    2.385461    1.371944
            19    0       4.488891      2.011964      3.714448    -0.587913    0.176853   -0.170919
            20    0       6.161322      7.455234      3.068457     1.250771    1.277636   -0.443823
            21    0       5.841073      7.049622      0.466565    -0.081242   -0.724027    0.684286
            22    0       0.031554      3.948299      6.299403    -2.914238    1.523797   -0.337987
            23    0       6.309910      2.534877     10.190171    -0.879665    0.724035    0.011875
            24    0       3.312318      6.745420      3.234460    -2.566708   -4.308369   -1.963437
            25    0       9.132968      0.795124      3.237903     0.821298    0.054031    0.954964
            26    0       0.195587      3.853002      1.286503     1.341385   -1.411180    1.572372
            27    0       1.818048      0.495038      0.245333     0.690493   -1.965149    1.489183
            28    0       0.452193      3.626650      3.908449    -2.006543   -0.780511    0.602203
            29    0       2.993009      4.490837      0.732473    -0.864131   -0.940727    1.638927
            30    0       6.494402      0.767611      8.649252    -0.772892   -1.782052    2.149103
            31    0       6.840742      9.179625      4.667061     0.957088   -0.756082   -0.492323
            32    0       1.857473      1.337219      8.313720     0.530595    0.468001   -1.039385
            33    0       2.339675      8.339847      0.508560    -1.649758    2.295386   -0.596807
            34    0       0.963732      5.953352      4.379489    -0.169307    0.665072    1.072187
            35    0       2.382464      3.028600      2.514299     1.896922    1.565787   -0.171541
            36    0       0.195204      8.152271     10.002494    -1.138782    1.112577   -0.463240
            37    0       4.186012      8.303867      1.994019     0.394801    1.735947   -1.487628
            38    0       7.532885      5.938223      2.253306    -1.267604    1.744190   -0.987046
            39    0       1.019540      1.339493      2.404953    -1.718403    0.096027   -0.621207
            40    0       4.984790      0.527764      0.707985    -0.846776    1.308547   -2.978825
            41    0       7.976987      6.649018      9.241591    -1.997845    0.262914    3.114869
            42    0       4.252288      5.073224      6.591580     1.402324   -0.193778   -0.235766
            43    0       9.904051      9.747192      1.476802     2.053949   -0.621736   -1.132427
            44    0       9.104784      6.002698      5.817918     0.608492   -1.967267    1.300900
            45    0       4.665348      2.910929      5.803466    -1.269123   -0.576944    1.286350
            46    0       2.076818      4.993051      6.128952     2.588574   -5.099715    0.155671
            47    0       8.815422      2.633718      2.268309    -0.106346    1.636417    0.173576
            48    0       6.507626      1.450941      6.405292    -0.764533    2.749798    1.210256
            49    0       4.248970      0.746561      8.317339     1.578574    0.291595    1.495272
            50    0       8.114702      0.765355      0.654628    -1.402536   -0.245137   -1.111669
            51    0       3.727734      3.051412      8.029574    -0.625630   -1.469019   -2.291409
            52    0       1.469204      5.124036      2.481943     2.825174    1.196352   -2.018627
            53    0       2.561574      9.508162      8.444687    -1.223488   -2.354575    1.464889
            54    0       9.854215      6.285797      8.337627     2.232736   -0.860743   -1.147033
            55    0       4.880547      3.297909      1.823583    -2.271966    0.893643   -0.090001
            56    0       0.263668      8.562706      7.539439    -0.977435   -0.072203   -0.156178
            57    0       1.007313      6.590043      6.498120    -3.209614    4.041006    1.164804
            58    0       7.617200      7.180420      4.917541     1.009518   -0.536591   -2.188452
            59    0       1.150046      6.258049      0.144726     1.898197   -2.192664    0.612551
            60    0       6.348715      9.607830      6.860000     0.109563   -2.539831   -0.109664
            61    0       6.254701      9.177926      0.578616     4.338990   -1.454113   -0.167166
            62    0       3.244062      0.943196      6.349348     1.378776    1.029435   -1.485749
            63    0       6.658790      5.111804      5.937679     0.724861    0.126806    0.054717
            64    0       1.129928      7.465932      2.377163    -0.358431   -2.305138   -1.540933
            65    0       4.614508      4.730965      9.413562     1.278236   -0.869709   -0.078615
            66    0       1.908700      9.457187      2.390759     0.732647    1.140075   -0.785821
            67    0       9.502854      5.919142      2.907654     1.517798   -2.240845    0.964522
            68    0       1.757120      2.749591      6.647283     2.670622    1.009888   -0.423903
            69    0       8.232866      4.593213      8.171988     2.187974   -0.538382   -0.365574
            70    0       8.150599      7.856117      7.435820     1.136807    0.314691   -4.042993
            71    0       5.935600      3.119359      7.967146     0.690737    1.023316   -0.509402
            72    0       2.521589      4.786296      8.444034    -2.444594    1.443398    0.250007
            73    0       1.995584      7.187846      8.314217     0.195854    0.437987    2.142267
            74    0       5.949869      7.307962      6.296790    -1.353881    0.219403    1.036353
            75    0       6.548403      4.977193      0.235881     0.957541   -0.874250    0.037918
            76    0       4.403346      8.160096      4.400650     1.614849    2.643487    2.022018
            77    0       4.267922      8.604479      9.657064     0.459204    1.317975   -0.393741
            78    0       3.184149      4.551767      4.311103     0.680967   -1.539593   -1.563083
            79    0       9.276952      5.604646      0.618867    -1.121074    2.398588    0.177370
            80    0       6.368931      5.693070      8.068145    -2.940046    0.437483    0.043529
            81    0       6.093171      3.698450      4.294101    -1.230921   -0.567682   -0.219092
            82    0       2.000290      8.099911      4.404007    -0.452628   -0.701451   -0.209033
            83    0       8.416995      0.180803      7.328707     1.869893    0.926832   -0.734862
            84    0       3.267780      7.220647      6.135761    -0.628563   -1.717740   -0.149160
            85    0       3.915668      2.351556     10.101067     3.245551   -0.697365    1.314294
            86    0       6.496546      1.664059      2.024847     0.907307   -1.333154    2.074122
            87    0       3.486912      6.563994      0.424297     2.101561   -0.929555    0.377497
            88    0       8.922174      9.827915      5.104226    -2.816098    1.119438    1.045770
            89    0       4.133876      6.612344      8.297135     1.477236    1.130353   -0.045008
            90    0       7.876890      9.396323      2.428412    -3.969932    1.157397    0.316944
            91    0       5.144755      0.213711      5.015493    -2.428176    1.006858    1.729906
            92    0       6.974268      3.881079      2.297780     0.755638   -0.617955   -0.988126
            93    0       4.342202      8.796850      7.131636    -0.373855    1.460142    0.481871
            94    0       8.405221      3.664285      0.093106    -0.429403   -0.087280    1.504740
            95    0       9.327316      8.037629      3.154411     0.215185    0.501063    1.617817
            96    0      10.032234      1.816535      0.344854    -0.125955   -0.594803   -1.035270
            97    0       0.412270      4.177571      9.304313    -0.662201    0.907685   -3.000023
            98    0      10.124564      8.187339      5.291581     0.637926   -3.241338    0.480078
            99    0       1.996132      9.325050      6.248543     0.620151   -0.853258    0.701999
           100    0       3.415286      1.049173      1.949556    -2.076258   -0.361792    1.214244
 Energy
       -405.707146165225
 PlusStress:  xx          yy          zz          yz          xz          xy
       489.92082   489.37343   446.42538    20.24801    -3.12843   -22.57193
 Feature   MV_grade	2.272138
END_CFG

BEGIN_CFG
 Size
    100
 Supercell
        10.211495      0.000000      0.000000
         0.000000     10.211495      0.000000
         0.000000      0.000000     10.211495
 AtomData:  id type       cartes_x      cartes_y      cartes_z           fx          fy          fz
             1    0       8.415535      7.866068      0.946174    -0.671798   -1.461020   -0.235165
             2    0       8.354113      9.181495      9.230484    -1.246584    0.699228    1.880411
             3    0       7.088649      1.421675      4.332134    -0.131359    0.757308   -2.925748
             4    0       8.073049      2.263530      8.742563    -1.909271   -1.177723    0.063145
             5    0       3.104987     10.104100      4.129603     1.863945    1.113562    0.243605
             6    0       6.261430      8.167538      8.652703    -1.083081   -0.284349   -0.058121
             7    0       5.060184      5.913617      4.468471     0.435178   -0.728833    1.242718
             8    0       5.139764      5.594013      2.219310    -1.294060   -1.373548   -1.159134
             9    0       5.634765      9.828074      2.858569    -0.722455    1.036648   -0.883270
            10    0       0.130833     10.208428      8.964892    -0.636812    1.675056    0.409386
            11    0       1.889491      1.930933      4.505438     1.127680    1.094470    0.962145
            12    0       8.262307      4.266956      4.244018     2.036846    0.203660   -0.185862
            13    0       9.929759      2.233407      7.918201     2.715692    1.025189   -0.126220
            14    0       7.871100      3.244565      6.454241    -0.002522    0.605660    0.213171
            15    0       9.090928      1.850565      5.347606     0.812087    1.750003   -1.124093
            16    0       0.846658     10.153047      4.389650    -1.154588    0.011573   -1.728895
            17    0       0.514355      0.850554      6.404600     0.091468   -1.935662    0.343950
            18    0       1.878109      2.682300     10.007216    -2.041401    2.268143    1.340295
            19    0       4.487977      2.012234      3.714184    -0.578282    0.182233   -0.169908
            20    0       6.163298      7.457226      3.067767     1.173587    1.250079   -0.437335
            21    0       5.840952      7.048499      0.467625    -0.088957   -0.717369    0.680871
            22    0       0.026988      3.950691      6.298869    -2.805764    1.459305   -0.317828
            23    0       6.308540      2.536001     10.190170    -0.861591    0.716714    0.047220
            24    0       3.308267      6.738647      3.231386    -2.423245   -4.113585   -1.896675
            25    0       9.134252      0.795212      3.239414     0.795522    0.045906    0.893195
            26    0       0.197678      3.850781      1.288977     1.313083   -1.342187    1.496943
            27    0       1.819119      0.491949      0.247672     0.684614   -1.874466    1.424299
            28    0       0.449064      3.625430      3.909399    -1.959718   -0.757629    0.569442
            29    0       2.991647      4.489368      0.735045    -0.815941   -0.912761    1.569717
            30    0       6.493192      0.764863      8.652602    -0.745293   -1.797389    2.102612
            31    0       6.842281      9.178422      4.666295     0.848752   -0.696794   -0.484878
            32    0       1.858275      1.337957      8.312073     0.565877    0.441866   -0.967870
            33    0       2.337082      8.343462      0.507645    -1.573892    2.176736   -0.612351
            34    0       0.963449      5.954410      4.381151    -0.130608    0.610872    1.067184
            35    0       2.385429      3.031058      2.514019     1.840415    1.499314   -0.143532
            36    0       0.193426      8.154040     10.001779    -1.110544    1.026106   -0.466782
            37    0       4.186642      8.306591      1.991680     0.359153    1.666325   -1.420963
            38    0       7.530886      5.940944      2.251761    -1.199070    1.699558   -0.953923
            39    0       1.016856      1.339608      2.403979    -1.669125    0.157901   -0.598373
            40    0       4.983433      0.529870      0.703345    -0.762748    1.159597   -2.915511
            41    0       7.973849      6.649423      9.246517    -1.914178    0.264736    2.916397
            42    0       4.254454      5.072919      6.591202     1.405264   -0.184628   -0.211598
            43    0       9.907284      9.746227      1.475026     1.952476   -0.615066   -1.087772
            44    0       9.105760      5.999635      5.819942     0.543972   -1.929576    1.280242
            45    0       4.663373      2.910033      5.805476    -1.246253   -0.570328    1.247891
            46    0       2.080986      4.984933      6.129160     2.310537   -4.702749    0.205904
            47    0       8.815248      2.636287      2.268569    -0.089643    1.565814    0.189571
            48    0       6.506434      1.455268      6.407191    -0.748792    2.615992    1.160116
            49    0       4.251458      0.747029      8.319671     1.493067    0.260700    1.458971
            50    0       8.112513      0.764973      0.652895    -1.365566   -0.237402   -1.086390
            51    0       3.726772      3.049106      8.025975    -0.634493   -1.407696   -2.189354
            52    0       1.473604      5.125895      2.478775     2.769223    1.181301   -1.933531
            53    0       2.559676      9.504473      8.446963    -1.214731   -2.267222    1.445224
            54    0       9.857749      6.284446      8.335808     2.088091   -0.826313   -1.064961
            55    0       4.876998      3.299307      1.823431    -2.206357    0.865142   -0.066175
            56    0       0.262156      8.562568      7.539178    -0.976417   -0.022578   -0.118914
            57    0       1.002161      6.596519      6.499965    -2.881270    3.651427    1.092798
            58    0       7.618769      7.179611      4.914122     0.996572   -0.576640   -2.127373
            59    0       1.153009      6.254620      0.145680     1.850023   -2.125717    0.600654
            60    0       6.348852      9.603822      6.859841     0.169078   -2.396181   -0.129694
            61    0       6.261487      9.175602      0.578347     4.203118   -1.323618   -0.149538
            62    0       3.246206      0.944808      6.347021     1.356069    0.992669   -1.431461
            63    0       6.659907      5.111999      5.937766     0.732557    0.129784    0.049909
            64    0       1.129367      7.462317      2.374774    -0.347956   -2.213377   -1.530232
            65    0       4.616527      4.729625      9.413445     1.201319   -0.879940   -0.085819
            66    0       1.909840      9.458991      2.389513     0.718577    1.064870   -0.727419
            67    0       9.505246      5.915656      2.909164     1.437637   -2.204774    0.931252
            68    0       1.761317      2.751159      6.646637     2.548842    0.993845   -0.439611
            69    0       8.236287      4.592349      8.171409     2.120845   -0.481915   -0.340999
            70    0       8.152375      7.856618      7.429483     1.105089    0.290042   -3.893537
            71    0       5.936682      3.120939      7.966349     0.666325    1.030292   -0.491122
            72    0       2.517754      4.788555      8.444415    -2.347300    1.396211    0.259535
            73    0       1.995885      7.188535      8.317549     0.199417    0.416717    2.107128
            74    0       5.947746      7.308313      6.298421    -1.301135    0.199046    0.985379
            75    0       6.549893      4.975831      0.235941     0.941709   -0.855820    0.034348
            76    0       4.405894      8.164272      4.403844     1.527092    2.488016    1.905976
            77    0       4.268633      8.606524      9.656435     0.458344    1.307481   -0.357066
            78    0       3.185200      4.549383      4.308684     0.683176   -1.535125   -1.558144
            79    0       9.275179      5.608405      0.619134    -1.048847    2.308402    0.190405
            80    0       6.364318      5.693764      8.068208    -2.820820    0.405452    0.051052
            81    0       6.091243      3.697561      4.293765    -1.187404   -0.547816   -0.223644
            82    0       1.999565      8.098811      4.403700    -0.407223   -0.674789   -0.239793
            83    0       8.419917      0.182244      7.327551     1.816421    0.913836   -0.698143
            84    0       3.266798      7.217974      6.135523    -0.611214   -1.687923   -0.136860
            85    0       3.920807      2.350433     10.103146     3.031632   -0.615564    1.229577
            86    0       6.497973      1.661975      2.028094     0.863582   -1.290891    2.001809
            87    0       3.490196      6.562514      0.424884     2.041874   -0.855449    0.371761
            88    0       8.917736      9.829713      5.105837    -2.668376    1.005795    1.056108
            89    0       4.136180      6.614105      8.297064     1.441160    1.108837   -0.041668
            90    0       7.870660      9.398137      2.428916    -3.804352    1.116179    0.293639
            91    0       5.140920      0.215286      5.018177    -2.280388    0.976096    1.716252
            92    0       6.975460      3.880107      2.296237     0.712670   -0.586885   -0.961252
            93    0       4.341649      8.799126      7.132395    -0.419889    1.429836    0.457668
            94    0       8.404536      3.664156      0.095455    -0.389744   -0.097789    1.465443
            95    0       9.327666      8.038399      3.156948     0.184253    0.509099    1.552323
            96    0      10.032051      1.815615      0.343245    -0.148715   -0.594131   -1.021796
            97    0       0.411270      4.178979      9.299631    -0.705845    0.899754   -2.925303
            98    0      10.125615      8.182216      5.292352     0.522450   -3.043685    0.426969
            99    0       1.997088      9.323715      6.249641     0.625697   -0.825992    0.678330
           100    0       3.412031      1.048618      1.951459    -1.996443   -0.369486    1.168669
 Energy
       -406.490115347850
 PlusStress:  xx          yy          zz          yz          xz          xy
       487.55532   486.62342   444.85952    19.97279    -2.89838   -21.86035
 Feature   MV_grade	3.475824
END_CFG

BEGIN_CFG
 Size
    100
 Supercell
        10.211495      0.000000      0.000000
         0.000000     10.211495      0.000000
         0.000000      0.000000     10.211495
 AtomData:  id type       cartes_x      cartes_y      cartes_z           fx          fy          fz
             1    0       8.414231      7.863198      0.945603    -0.645250   -1.378713   -0.140270
             2    0       8.351749      9.182863      9.234188    -1.240059    0.664817    1.769293
             3    0       7.088441      1.423144      4.326396    -0.159022    0.729779   -2.769691
             4    0       8.069187      2.261257      8.742755    -1.727585   -1.141543    0.011925
             5    0       3.108675     10.106269      4.130098     1.739398    1.066176    0.216360
             6    0       6.259296      8.167023      8.652615    -1.018835   -0.301170   -0.073816
             7    0       5.061038      5.912151      4.470928     0.411872   -0.664072    1.162438
             8    0       5.137277      5.591340      2.217036    -1.262671   -1.316003   -1.097417
             9    0       5.633445      9.830022      2.856838    -0.759446    1.045866   -0.837575
            10    0       0.129626     10.211639      8.965695    -0.634274    1.641280    0.387960
            11    0       1.891665      1.933051      4.507321     1.095559    1.057992    0.913212
            12    0       8.266272      4.267361      4.243671     1.949630    0.188199   -0.189611
            13    0       9.935134      2.235323      7.917884     2.542457    1.039819   -0.072905
            14    0       7.871092      3.245733      6.454664    -0.000799    0.587361    0.198698
            15    0       9.092453      1.853885      5.345456     0.819656    1.740214   -1.105783
            16    0       0.844423     10.153096      4.386302    -1.115143   -0.008308   -1.669215
            17    0       0.514529      0.846828      6.405283     0.089564   -1.885946    0.319641
            18    0       1.873965      2.686785     10.009802    -1.839672    2.122872    1.299732
            19    0       4.486867      2.012570      3.713860    -0.565930    0.188674   -0.168627
            20    0       6.165645      7.459636      3.066929     1.076584    1.216276   -0.429092
            21    0       5.840797      7.047132      0.468919    -0.098322   -0.707820    0.676527
            22    0       0.021503      3.953558      6.298234    -2.669194    1.378837   -0.292789
            23    0       6.306882      2.537369     10.190200    -0.837561    0.707499    0.090559
            24    0       3.303441      6.730538      3.227686    -2.248487   -3.875284   -1.815330
            25    0       9.135798      0.795311      3.241206     0.762039    0.035280    0.816577
            26    0       0.200209      3.848128      1.291935     1.278358   -1.256828    1.404378
            27    0       1.820423      0.488254      0.250473     0.676513   -1.760561    1.342960
            28    0       0.445281      3.623958      3.910530    -1.900074   -0.729841    0.528789
            29    0       2.990025      4.487596      0.738127    -0.754313   -0.876566    1.482107
            30    0       6.491738      0.761490      8.656655    -0.709785   -1.815524    2.044198
            31    0       6.844067      9.177004      4.665366     0.714295   -0.624836   -0.475614
            32    0       1.859286      1.338835      8.310123     0.609529    0.409020   -0.879453
            33    0       2.333979      8.347775      0.506514    -1.479874    2.028615   -0.630869
            34    0       0.963138      5.955655      4.383178    -0.082157    0.543230    1.061597
            35    0       2.389003      3.034003      2.513701     1.769344    1.415854   -0.108138
            36    0       0.191278      8.156125     10.000901    -1.076063    0.919043   -0.471782
            37    0       4.187381      8.309859      1.988880     0.315284    1.580528   -1.339598
            38    0       7.528504      5.944231      2.249902    -1.114290    1.642005   -0.912258
            39    0       1.013617      1.339803      2.402809    -1.607312    0.234446   -0.570306
            40    0       4.981848      0.532313      0.697729    -0.660695    0.976010   -2.832875
            41    0       7.970087      6.649919      9.252364    -1.813141    0.265452    2.670107
            42    0       4.257105      5.072555      6.590762     1.406981   -0.173012   -0.181619
            43    0       9.911146      9.745054      1.472894     1.826948   -0.606198   -1.032343
            44    0       9.106895      5.995924      5.822397     0.463420   -1.880996    1.253901
            45    0       4.660979      2.908945      5.807898    -1.216950   -0.561318    1.198605
            46    0       2.085837      4.975356      6.129457     1.983212   -4.229928    0.259927
            47    0       8.815052      2.639365      2.268902    -0.068368    1.477178    0.209655
            48    0       6.504992      1.460439      6.409469    -0.728848    2.449911    1.097658
            49    0       4.254424      0.747574      8.322490     1.386065    0.222659    1.412960
            50    0       8.109869      0.764511      0.650799    -1.319072   -0.226912   -1.054225
            51    0       3.725588      3.046342      8.021665    -0.643766   -1.331723   -2.061052
            52    0       1.478932      5.128153      2.474976     2.697177    1.161498   -1.827365
            53    0       2.557364      9.500041      8.449729    -1.204070   -2.157520    1.420148
            54    0       9.861941      6.282826      8.333658     1.910663   -0.783666   -0.962675
            55    0       4.872717      3.300990      1.823267    -2.123780    0.829292   -0.036004
            56    0       0.260308      8.562444      7.538891    -0.974532    0.039926   -0.072205
            57    0       0.996152      6.604094      6.502157    -2.486570    3.187711    1.008805
            58    0       7.620675      7.178588      4.909997     0.980453   -0.626226   -2.051438
            59    0       1.156587      6.250488      0.146836     1.789721   -2.043084    0.585982
            60    0       6.349072      9.599050      6.859630     0.242596   -2.218904   -0.153840
            61    0       6.269663      9.172877      0.578033     4.034414   -1.166362   -0.129147
            62    0       3.248807      0.946746      6.344225     1.326000    0.946381   -1.362514
            63    0       6.661280      5.112239      5.937869     0.742239    0.133684    0.043892
            64    0       1.128690      7.457979      2.371862    -0.336051   -2.098314   -1.516527
            65    0       4.618927      4.727979      9.413295     1.105642   -0.892331   -0.094244
            66    0       1.911223      9.461130      2.388040     0.700775    0.971183   -0.654043
            67    0       9.508099      5.911428      2.910981     1.338693   -2.158854    0.889495
            68    0       1.766339      2.753062      6.645833     2.396507    0.970195   -0.457663
            69    0       8.240410      4.591342      8.170724     2.037141   -0.412755   -0.309329
            70    0       8.154517      7.857208      7.421868     1.064870    0.260397   -3.709848
            71    0       5.937982      3.122876      7.965390     0.635415    1.039173   -0.467590
            72    0       2.513154      4.791274      8.444890    -2.225748    1.337881    0.270860
            73    0       1.996256      7.189358      8.321593     0.203358    0.390017    2.062766
            74    0       5.945197      7.308723      6.300369    -1.235732    0.173533    0.921843
            75    0       6.551699      4.974183      0.236012     0.921112   -0.832217    0.029561
            76    0       4.408932      8.169241      4.407647     1.421608    2.298708    1.766316
            77    0       4.269501      8.609014      9.655699     0.457357    1.294120   -0.311020
            78    0       3.186488      4.546474      4.305732     0.684891   -1.528567   -1.548986
            79    0       9.273076      5.612920      0.619472    -0.958181    2.195803    0.206417
            80    0       6.358785      5.694585      8.068292    -2.671971    0.366058    0.059989
            81    0       6.088925      3.696492      4.293350    -1.133163   -0.522881   -0.228954
            82    0       1.998719      8.097491      4.403298    -0.350585   -0.641521   -0.278089
            83    0       8.423441      0.183994      7.326171     1.749384    0.897740   -0.651424
            84    0       3.265612      7.214732      6.135243    -0.589956   -1.650811   -0.121980
            85    0       3.926899      2.349134     10.105612     2.768153   -0.512719    1.123989
            86    0       6.499679      1.659464      2.031997     0.808958   -1.237463    1.909254
            87    0       3.494157      6.560771      0.425596     1.967553   -0.765191    0.364112