BEGIN_CFG
 Size
    100
 Supercell
        10.211495      0.000000      0.000000
         0.000000     10.211495      0.000000
         0.000000      0.000000     10.211495
 AtomData:  id type       cartes_x      cartes_y      cartes_z           fx          fy          fz
             1    0       8.262600      8.701750      1.335650    -3.647737   -1.574255    1.249503
             2    0       7.963300      8.978460      8.261270     6.482137    2.599658   -0.642965
             3    0       6.617210      1.089030      4.518170     2.868975    1.145814    4.249745
             4    0       8.437030      2.283350      8.465750    -2.963530   -0.773701    0.523313
             5    0       2.052590      0.138010      4.811890     2.348922   -2.996673   -3.118694
             6    0       6.142910      8.201890      8.468710    -5.190886   -3.581294   -3.160599
             7    0       5.351770      5.816910      4.389450     0.506016   -0.846252   -0.891970
             8    0       5.227630      5.374580      2.190940     0.440161    3.191677   -2.327796
             9    0       5.082420      0.176900      2.650540    -0.289945   -0.793917    2.783357
            10    0       9.826440      0.718450      8.291850     3.922257   -1.766251   -1.367924
            11    0       2.161800      2.243310      4.882130    -0.840098   -0.065192   -1.664574
            12    0       9.060790      4.152920      4.685090    -0.933152   -0.723323    1.522458
            13    0       0.590100      3.094660      8.683810     0.569439   -0.325954    0.514751
            14    0       7.586120      2.681430      5.934570    -0.080164    2.182133    1.689501
            15    0       9.314980      1.631720      4.484000    -1.516604   -0.484851    1.474016
            16    0       0.242120      9.267510      4.053430    -1.354903    1.153833   -1.287163
            17    0       0.408570      0.594870      6.066780    -0.001668    2.503829    1.258849
            18    0       2.418390      2.874820     10.132860    -1.753419    0.415289    1.818224
            19    0       4.759910      2.112420      4.666930    -3.677162   -0.860555    0.558737
            20    0       5.534910      7.870980      2.354000     2.824809   -0.146087   -0.964072
            21    0       5.674880      6.461650      0.199540    -1.234894    1.217146   -0.328245
            22    0       9.981700      2.899080      6.619530     0.678746    0.157352   -2.647803
            23    0       7.170290      2.517920      0.503870    -0.884183   -0.164910   -1.881973
            24    0       3.572370      6.952300      2.272070    -1.345093   -1.328079    5.501415
            25    0       8.560690      1.139560      1.903420    -0.621702   -1.507564   -0.576558
            26    0       0.928580      3.840680      1.476430    -0.152606    0.037061   -0.431841
            27    0       2.654710      0.615570      0.696980     0.758304   -0.738224   -3.051758
            28    0       0.711280      3.589120      3.732930     1.103488   -1.941298   -0.341612
            29    0       3.196450      4.827260      1.146400     0.226964    0.726960   -1.187481
            30    0       6.582620      0.747300      8.401150     2.700988   -0.407530    1.541979
            31    0       6.235800      8.118950      4.381600    -1.798711    0.649405    1.413533
            32    0       2.122030      1.320020      8.472690    -0.737782    0.468055    2.258411
            33    0       1.653680      8.689770      0.214860    -1.440589    0.761741   -1.212378
            34    0       0.759180      5.523140      4.799100     2.536130   -1.818943   -1.530068
            35    0       2.901570      2.967610      2.560080    -2.226938    1.525412   -0.012281
            36    0       9.765620      8.712990     10.084610     0.007505   -0.908022   -5.281023
            37    0       4.480300      9.214520      0.915340    -2.007363   -0.446071   -0.421107
            38    0       7.614750      6.435500      1.512310     0.374893    2.212748    1.458910
            39    0       0.527220      1.386960      2.842050     1.706724   -0.488954   -0.446533
            40    0       5.835340      0.702550      0.591710     3.015527    0.769961   -2.194992
            41    0       8.188090      7.016940      9.486010    -5.840896   -0.674550    2.920159
            42    0       3.964760      5.151440      7.309340     1.244629   -0.776048   -0.621651
            43    0      10.074160      9.695470      1.660900     3.597286    2.619038    3.942780
            44    0       9.477770      5.417520      6.439720    -0.155110   -1.525616    2.864151
            45    0       5.310790      3.908090      5.926600     0.063592    1.702749    1.258766
            46    0       1.835520      4.833580      6.616140    -1.116228   -0.498947    1.736959
            47    0       8.815020      3.049430      2.737730     1.792386    1.003534    0.015953
            48    0       5.489800      1.786140      6.851160    -1.238553   -0.052947   -1.044376
            49    0       4.434630      0.783550      8.653350    -0.318703    1.853357    0.588643
            50    0       8.566660      0.571140      9.942580    -2.478835   -1.931931    1.813828
            51    0       4.128820      3.092160      8.800560    -0.767151   -0.807877   -3.723782
            52    0       2.170850      5.329570      3.089040     0.100577    1.052474   -1.497017
            53    0       1.329820      9.520090      8.484830    -0.860034   -1.085412   -2.532470
            54    0       9.722500      7.315670      8.321810     2.515581    1.842290   -2.427915
            55    0       4.855760      3.644650      3.202890    -0.760878   -1.038384   -0.457991
            56    0      10.031930      8.828030      6.604220    -1.138718   -0.375653    0.921790
            57    0       0.813460      6.873670      6.688040     2.113089   -0.472318   -0.676750
            58    0       7.795970      5.835820      3.694940    -2.080461   -0.327607    1.793901
            59    0       1.093860      6.335820      0.695870     3.122655   -0.090122   -0.260642
            60    0       6.599180      9.470000      6.462360    -0.960329    1.182936    0.610188
            61    0       6.541630      8.929810      0.113930     0.578697   -0.287977    2.185449
            62    0       3.027340      0.542700      6.707960     2.121024   -0.525740   -0.867695
            63    0       7.313330      5.380100      6.422000    -2.401650   -4.199446   -0.566620
            64    0       0.169280      7.582220      2.230150    -0.107517    0.095302    1.015038
            65    0       5.353020      3.985000      0.086930    -0.583459    1.355447    2.817941
            66    0       2.253170      9.115190      2.098940     0.505839   -1.717314    4.873320
            67    0       9.737970      5.454490      2.473600    -0.112253   -0.458206    1.205577
            68    0       2.592840      2.761510      6.875130     0.993693    2.034575    1.662940
            69    0       8.591120      4.295170      8.138390    -0.725520    3.831619    1.239079
            70    0       7.477830      7.397540      6.180320     2.137639    3.265243    0.625223
            71    0       6.342620      3.512600      8.306840     0.863269   -2.010660   -1.125223
            72    0       2.663500      5.004950      9.135770     0.254316    0.080803   -0.011138
            73    0       1.930340      7.257210      8.594440    -0.702967   -0.348937   -0.429745
            74    0       5.124230      7.031970      6.108640     0.675026   -1.228479    1.844407
            75    0       7.402570      4.810780      0.061470     0.468986   -1.055767   -3.702842
            76    0       3.763390      8.425250      4.092190     0.771248    0.764517   -0.459706
            77    0       3.624420      9.118810      8.993000    -0.995457   -1.194212    0.882142
            78    0       3.153830      4.169580      4.806190     1.528803    1.085532    0.054091
            79    0       9.453230      5.380000      0.250300    -1.315332   -1.358694    0.943964
            80    0       6.114040      5.719970      8.307320     0.400059    1.115397   -0.465791
            81    0       6.842070      3.764200      4.226060     0.314922    0.407438    0.677551
            82    0       1.646540      7.565330      3.950170    -1.028979   -0.228307   -1.542204
            83    0       8.391290      0.863050      6.559420    -0.996463   -1.484694    1.913697
            84    0       3.011900      6.402270      5.265520     1.555136   -1.536869    0.860527
            85    0       4.298260      2.093110      0.988300     0.028385    2.490487    0.701981
            86    0       6.392630      2.042540      2.609280     0.226977    0.817387   -1.460333
            87    0       3.287490      7.370810      0.356160     1.313866   -2.278621   -4.067284
            88    0       8.471670      9.468100      5.116810     0.139701   -0.340029   -0.463251
            89    0       4.140200      7.033520      8.491440     0.905376   -1.237387   -0.447036
            90    0       7.440770      9.993450      3.176300    -0.392474   -1.035570   -2.900439
            91    0       4.928090     10.124900      5.167720    -2.468225   -0.424167   -0.718081
            92    0       7.170900      4.268650      2.149300    -1.081446    0.057196   -1.232352
            93    0       4.217170      8.803470      6.826230     0.882322    0.910707    1.705376
            94    0       9.386310      2.879330      0.320510    -1.116638    2.367852    0.066204
            95    0       8.132400      7.983660      3.425300     2.358644   -1.382155   -1.838782
            96    0       0.604830      1.249460      0.484130    -0.216742   -0.308027   -1.064879
            97    0       0.420280      5.348810      8.678020     1.798318   -1.175015   -2.152670
            98    0       9.506700      6.931310      4.864450    -1.593379    4.832518   -1.019890
            99    0       2.232390      8.368520      6.049760    -0.796831    1.719908    0.915890
           100    0       2.922340      0.851020      2.844700     0.598471   -0.027601    2.286501
 Energy
       -397.196423890000
 PlusStress:  xx          yy          zz          yz          xz          xy
       487.32569   520.56451   508.01812    -6.29589    -6.64163    -9.24758
 Feature   EFS_by	VASP
 Feature   ID	-1
 Feature   mindist	1.949106
END_CFG

BEGIN_CFG
 Size
    100
 Supercell
        10.211495      0.000000      0.000000
         0.000000     10.211495      0.000000
         0.000000      0.000000     10.211495
 AtomData:  id type       cartes_x      cartes_y      cartes_z           fx          fy          fz
             1    0       8.241610      7.795600      2.029470    -1.164798   -1.518688   -0.688400
             2    0       8.275090      8.602160      9.431690    -3.034852    0.563707   -0.083586
             3    0       6.954410      1.636200      4.253510     0.387731   -0.379924   -4.395506
             4    0       7.891560      2.289820      8.577460     1.195096   -0.327795   -3.565780
             5    0       3.334480      0.138930      3.897750     2.885858   -2.611819    1.068524
             6    0       6.174500      7.961330      8.697960     2.990685   -0.168685   -1.249043
             7    0       5.730250      6.320380      4.483790    -1.189527   -1.509590   -1.606716
             8    0       6.145780      5.439370      2.384290    -1.490775    0.796332   -0.864754
             9    0       5.094010     10.105040      2.489900    -1.507912    1.719768    0.598751
            10    0       9.848220      0.061460      9.516170     1.491854    0.045140   -2.142555
            11    0       2.268230      1.965910      3.834520    -3.954246    2.753339    2.598139
            12    0       8.764270      3.185140      3.840190    -2.004714    1.139094    1.972783
            13    0      10.142850      2.027590      8.104760    -2.615502    1.454476   -1.643505
            14    0       8.563590      3.904020      6.167590    -0.564138   -1.767784   -0.990944
            15    0       9.832320      2.204030      5.459970    -0.172398   -0.305381    2.387694
            16    0       1.257930     10.037940      4.446050    -0.092297   -0.722128   -1.863429
            17    0       0.045450      0.019770      6.239700     2.522842    1.205316    3.656497
            18    0       1.646400      2.226310      0.089320     2.067104    2.740343   -0.906497
            19    0       4.459270      2.126620      4.010840     2.470689    0.551142   -1.657949
            20    0       6.196940      8.333350      2.836380     0.208984   -3.386544    2.564242
            21    0       6.101010      7.082560      0.804960    -0.431481    0.120010    0.448071
            22    0       0.304930      4.170110      7.223330    -0.659146   -2.863570    0.949776
            23    0       6.482170      2.658720     10.122890    -3.299738   -1.449031    2.060719
            24    0       4.244060      6.652410      2.724380    -0.738001   -1.169913   -0.007431
            25    0       9.483840      0.629210      3.957260    -1.463859    0.153673   -2.367779
            26    0       9.740410      3.877090      2.062310    -0.698035    2.299518   -2.067851
            27    0       1.661530      0.083810      0.079760    -0.569906    1.013111   -0.483344
            28    0       0.843660      3.716040      4.238400     0.236682    1.562862    0.310028
            29    0       2.551610      4.379320      0.301580     0.500700   -1.610840   -0.339505
            30    0       6.379590      0.385690      8.961380    -1.641076    0.847410    2.074292
            31    0       6.345050      9.765900      4.734780    -1.002810   -2.100247   -1.921797
            32    0       1.705650      1.032190      8.413910     2.177045   -0.273007   -2.679340
            33    0       2.288960      8.342030      0.153270     1.382658   -3.090290    0.393550
            34    0       1.963750      6.209340      4.554370    -4.797414    0.034807   -2.783846
            35    0       1.594350      3.356780      2.022560     2.234579    0.440767    1.565356
            36    0       0.011750      8.085620     10.072970     1.426787   -1.651323    1.486630
            37    0       4.015890      8.468260      1.586700     0.515744   -0.670999   -0.991619
            38    0       7.974320      5.460770      3.404570    -2.122287   -1.490510   -3.422840
            39    0       0.557170      1.374300      2.114720     0.846263   -2.223945    0.992475
            40    0       4.391970      0.527170      0.218740     1.244988   -2.577058    1.077927
            41    0       8.020140      6.394110      9.925570    -1.214908   -0.412284   -0.430640
            42    0       4.721190      4.815060      6.690740     2.765846   -0.500374    0.871551
            43    0       9.727590      9.466630      1.635350     0.313742    1.758293   -0.377125
            44    0       9.089780      5.863290      5.030630     1.874634   -1.506097    9.848011
            45    0       4.145270      2.873640      6.019090    -0.598831    0.298295    0.286915
            46    0       2.384210      4.556390      5.939420    -1.405181   -5.203482    0.276127
            47    0       8.588610      1.853910      2.082630    -0.672513   -0.498126    0.012529
            48    0       6.915890      2.097010      6.222570     0.861262    0.939327    4.867783
            49    0       4.198570      1.079620      8.105610     0.687640   -0.295463   -0.449635
            50    0       8.037080      0.590810      0.242050    -1.709000    1.179742    1.328909
            51    0       2.983730      3.104910      8.001330    -1.300515   -1.020455    0.135994
            52    0       2.162700      5.470570      2.425900     1.399334   -1.031970   -0.236578
            53    0       2.808480      9.367080      8.402570    -1.711033    1.558526   -0.423806
            54    0       9.907290      6.207800      8.502680    -0.933083   -1.122500    1.303108
            55    0       4.507650      4.015070      1.588660    -0.652462   -0.343167   -0.085879
            56    0       9.986520      8.450290      7.788940     1.318006    3.106099    0.469228
            57    0       0.764670      6.105520      6.533700    -0.385590    2.458428   -1.865609
            58    0       7.777660      7.491910      4.540180    -1.422717    3.214702   -1.090535
            59    0       1.568710      6.223520     10.206140    -2.427905    0.198683    0.198095
            60    0       6.332010      9.974450      6.929960     0.236487   -0.947998   -0.872643
            61    0       6.573740      9.175970      0.710620    -0.873914    1.679825   -1.780421
            62    0       2.445250     10.202380      6.367150     0.939166    2.440180   -0.598799
            63    0       7.037090      5.534520      6.137160    -0.854330   -0.693627   -0.330784
            64    0       1.146900      7.329140      1.951200    -0.185505    2.608694   -0.146033
            65    0       4.102200      4.819950      8.954640     3.508434   -3.094817   -0.648899
            66    0       2.172840      9.719960      1.999250    -1.168842   -1.308048    3.607490
            67    0      10.116350      5.949590      3.377120     5.423330   -0.713339   -3.731964
            68    0       1.652700      2.148500      6.295250     1.512881    0.964676   -1.046566
            69    0       8.065390      4.834340      8.062260     2.230224   -1.020026    0.978824
            70    0       8.161770      7.528290      7.277680    -2.866341   -1.390524   -0.817721
            71    0       5.685480      3.016700      7.991670     0.069408    0.268481   -0.054522
            72    0       2.174880      5.216400      8.208640    -1.689494    1.013495   -1.035946
            73    0       1.682360      7.557510      8.259270     0.641036   -2.824476    1.205006
            74    0       6.088620      7.653760      6.162600     1.288946    0.656926    1.446858
            75    0       5.963270      5.095880      0.028430     1.446953   -2.957712    0.949776
            76    0       4.223810      8.177600      4.746460     4.463377    1.268197    0.264268
            77    0       4.417370      8.700030      9.484280     1.486055   -0.171031    2.897400
            78    0       3.792940      4.321750      3.746510    -0.043824    0.573770    0.885396
            79    0       9.565450      6.011110      1.209400     0.325232   -1.315101   -0.879660
            80    0       6.167900      5.803670      8.196020    -1.235861    0.810233   -0.452328
            81    0       6.389010      3.825060      4.538610    -1.097240    1.214704    0.367854
            82    0       2.474170      8.166230      3.740480    -3.678192    0.827913   -3.182232
            83    0       8.423630      0.115350      7.645520     0.649295    1.254772    0.591384
            84    0       3.595340      6.243860      5.725310     4.085244    4.365572    1.639238
            85    0       4.073390      2.536820      9.934340     0.016208    2.982054    0.420040
            86    0       5.524650      1.927510      1.949440     1.142947    1.359983   -0.665401
            87    0       3.922130      6.292000      0.254650     0.080705    2.552562    3.003229
            88    0       8.439900      9.616170      5.472860    -4.296714   -0.534748   -0.939900
            89    0       4.024890      6.859210      8.189840    -0.551153    0.764856   -1.991255
            90    0       7.364720      0.144160      2.556910     0.513377   -1.486221    0.281379
            91    0       4.610100      0.741380      5.800710    -0.170580   -1.592434   -0.053884
            92    0       7.176000      3.562480      2.058420    -0.273723    0.213495   -0.186289
            93    0       4.379140      8.775210      6.889290    -0.862146    0.398124    0.882618
            94    0       8.227450      3.900280     10.115360     0.592172    3.050427    2.242772
            95    0       9.898650      8.292770      3.490980     0.738641    1.057940    0.214951
            96    0       9.705520      2.199070      0.219250    -1.165105   -0.228430   -0.308088
            97    0       0.274830      4.149890      9.670440     1.116589    1.635244   -0.296086
            98    0       9.890050      7.965900      5.600290     1.334589   -1.419920    0.689465
            99    0       2.046980      8.122980      6.207090    -0.291352   -1.721223   -2.277215
           100    0       3.142040      1.532260      1.906880     1.093257    1.111245   -2.398557
 Energy
       -401.035893890000
 PlusStress:  xx          yy          zz          yz          xz          xy
       494.79005   497.54751   486.25896     0.87117    15.53366   -18.73275
 Feature   EFS_by	VASP
 Feature   ID	-1
 Feature   mindist	1.948176
END_CFG

BEGIN_CFG
 Size
    100
 Supercell
        10.211495      0.000000      0.000000
         0.000000     10.211495      0.000000
         0.000000      0.000000     10.211495
 AtomData:  id type       cartes_x      cartes_y      cartes_z           fx          fy          fz
             1    0       8.411030      8.695390      1.160970    -1.217188   -0.891123    0.887720
             2    0       8.250270      9.194260      8.207300     3.614468    0.127784   -0.919750
             3    0       7.165370      1.381790      4.738520    -0.992776   -1.027179    3.008426
             4    0       8.407880      1.989360      8.763870    -2.777689    0.284480   -1.018263
             5    0       2.557380     10.123860      4.416820    -0.206811   -0.172028    0.324809
             6    0       6.329860      8.420510      8.324190    -4.766816   -2.588005   -1.306738
             7    0       5.273970      5.967740      4.261380     1.457349   -0.837356    0.139958
             8    0       5.045500      5.903510      1.904390     0.868801   -1.208614   -1.100073
             9    0       5.256450      0.458930      3.266520    -0.028240   -0.470392    0.365881
            10    0      10.017070      0.549940      8.214660     0.868888   -1.584897   -0.512519
            11    0       2.181410      2.072260      4.761230    -1.156637    1.576435   -1.840727
            12    0       8.803210      4.174300      4.881440    -0.710011   -1.931658   -0.188131
            13    0       0.215670      2.896980      8.629250     2.155590   -0.925864    0.672644
            14    0       7.659450      2.802200      6.719720     1.398666    1.926911   -3.821480
            15    0       9.416880      1.582540      4.531470    -0.055608    0.243752    0.159895
            16    0       0.256800      9.807300      3.700470    -0.520941   -0.928807   -0.274881
            17    0       0.690290      0.506590      5.897260    -0.545340   -0.097846    1.098388
            18    0       2.329870      2.884340      9.986580    -2.406188   -0.255728   -0.215545
            19    0       4.444360      2.168670      4.290190    -0.601530   -0.032663   -0.342327
            20    0       6.116960      7.788950      2.308760    -0.639277   -0.542110   -0.293811
            21    0       5.520830      7.080490     10.181240     0.636668   -1.778617    0.438147
            22    0       0.087620      2.891420      6.360900    -0.301588   -0.016219   -0.543191
            23    0       6.697450      2.642280      0.080930    -1.088287   -0.583286   -0.871697
            24    0       3.530460      6.943900      3.075070    -2.712605   -0.587600   -1.419315
            25    0       8.680120      1.018470      2.294790    -0.283728   -0.233054   -0.752234
            26    0       0.461650      3.777970      0.977300     0.767605    0.064631    0.999911
            27    0       2.787800      0.478110      0.421700    -2.226233   -1.144238   -1.259948
            28    0       0.340280      3.369140      3.721840     0.250470   -0.500807   -0.146363
            29    0       3.175490      4.613320      1.104440     0.336683   -0.076394   -1.199020
            30    0       6.438940      0.354510      8.809960     2.194010    4.083645   -0.780122
            31    0       6.445780      8.231790      4.679490     1.179811   -0.288323   -0.303987
            32    0       1.933290      1.184720      8.434570    -0.115073   -0.032544    2.194862
            33    0       1.873400      8.366040      0.351120    -1.470291    1.405987    1.839754
            34    0       1.066210      5.126320      4.769650    -1.278390    0.763432    0.871348
            35    0       2.300900      3.286600      2.590430     1.461187   -2.815408    0.016974
            36    0       9.855470      8.281690      9.621440     1.759049    2.819077    0.843920
            37    0       4.414430      9.226020      1.794700    -2.475986   -0.799680    0.254090
            38    0       7.798680      6.360830      1.751530     0.814306    0.488739    1.327747
            39    0       0.844260      1.572360      2.514380    -0.083629   -1.296267   -0.719419
            40    0       5.948760      0.893290      1.030260     1.016858    0.819222    2.309438
            41    0       7.698780      7.351580      9.550820    -2.683915    2.781903    4.716417
            42    0       4.265000      5.026590      7.063990    -0.690114    2.083139    1.890510
            43    0       0.282610      9.758920      1.201700     0.291561   -2.007784    1.704786
            44    0       9.369650      5.346950      6.610330     1.362551   -0.731574    0.042143
            45    0       4.956960      3.533330      5.808750     1.684741   -0.092457   -0.134637
            46    0       1.961770      4.647270      6.643440     0.972352   -0.017276    1.055061
            47    0       8.513710      3.361550      2.590470     3.365926    0.073510    0.394241
            48    0       5.418430      1.583390      6.902220     1.113336   -0.096423   -0.428262
            49    0       4.291680      0.660090      8.734360    -2.137810   -0.398072    0.509313
            50    0       8.531670      0.353900     10.148660    -2.247858   -1.515297    1.573646
            51    0       4.229070      2.999820      8.379650    -2.560775   -1.180963    0.281940
            52    0       1.796210      5.361040      2.739220     0.949613    3.104862   -0.963904
            53    0       1.409690      9.094870      8.322240     0.626493    1.239511   -0.329771
            54    0       9.108560      6.782100      8.289530     3.522884   -1.719053   -5.734738
            55    0       4.727870      3.659050      2.523180    -0.128164   -1.060473    0.391173
            56    0       9.936310      8.661150      6.497520     0.346556    0.561293    0.839481
            57    0       1.406110      6.702320      6.586790    -2.670836    0.810954    1.667410
            58    0       7.667060      5.982260      4.382300    -1.845131    1.009287   -2.448865
            59    0       1.233750      5.914750      0.401560     4.569926   -2.197423    3.752873
            60    0       6.477850      9.626620      6.534540     0.954899    0.075517   -1.173699
            61    0       5.906380      9.227860      0.205840     2.837964   -3.272927    0.377811
            62    0       3.063510      0.662530      6.628370     0.991387   -2.907547   -0.294884
            63    0       6.796240      5.089160      6.410100     1.420852   -2.024003   -1.481522
            64    0       0.580430      7.538440      2.186570    -1.244944   -0.393310   -0.006923
            65    0       5.129870      4.273920     10.099900     0.283214    1.572908    0.127185
            66    0       2.182690      9.030680      2.579940     1.299460   -0.271620   -1.026454
            67    0       9.814150      5.530400      2.780820    -2.647686   -0.680815   -0.519727
            68    0       2.566190      2.647420      6.798680     0.195139    1.873747    1.499336
            69    0       8.526720      4.310830      8.417760    -0.683034    1.500224   -2.031039
            70    0       8.023040      7.212820      6.331960    -1.836219    1.595516    1.019378
            71    0       6.262430      3.438370      8.143670     0.750587    1.667221    2.047943
            72    0       2.989880      4.799150      9.010290    -0.391573    1.149823   -0.566328
            73    0       1.623920      6.955490      8.814490     0.673133    0.798679   -2.301386
            74    0       5.624360      7.009480      6.359300    -1.776187    1.591627    0.002987
            75    0       7.269110      5.288130     10.109830    -1.066673   -1.553096   -1.215232
            76    0       4.281250      8.552570      4.240700    -0.940094   -1.170817   -0.692513
            77    0       3.795490      8.756690      9.697870     0.792103    2.166447   -1.413157
            78    0       3.375480      4.532570      4.367890    -0.317854    0.066942    0.620014
            79    0       9.514650      6.182120      0.120430    -4.199011   -2.023546    2.494847
            80    0       6.225350      6.049710      8.230810    -0.361749   -0.981703    1.645346
            81    0       6.633400      3.765980      4.164020    -0.068804    3.135829    2.835737
            82    0       1.451470      7.460390      4.441550     2.455800    1.488940   -3.383581
            83    0       8.233960      0.794350      6.811490     1.264685   -1.956788   -1.070602
            84    0       3.415510      6.699510      5.604760     1.199709    0.105714    0.009361
            85    0       4.220820      2.191650      0.619950     1.253900    1.490842   -0.134522
            86    0       6.674710      2.178420      2.865220    -1.355902   -1.810470   -5.111475