 100 100   0   0
  0.1064800E+02  0.1021150E-08  0.1021150E-08  0.1021150E-08  0.5000000E-15
  1.000000000000000E-004
  CAR 
 unknown system                          
     21.61672297     -4.21796984  301     14.73644440      1.00000000
     -4.218  0.0000E+00  0.0000E+00  0.0000E+00  0.0000E+00
     -4.132  0.0000E+00  0.0000E+00  0.0000E+00  0.0000E+00
     -4.046  0.0000E+00  0.0000E+00  0.0000E+00  0.0000E+00
     -3.960  0.0000E+00  0.0000E+00  0.0000E+00  0.0000E+00
     -3.874  0.0000E+00  0.0000E+00  0.0000E+00  0.0000E+00
     -3.787  0.0000E+00  0.0000E+00  0.0000E+00  0.0000E+00
     -3.701  0.0000E+00  0.0000E+00  0.0000E+00  0.0000E+00
     -3.615  0.0000E+00  0.0000E+00  0.0000E+00  0.0000E+00
     -3.529  0.0000E+00  0.0000E+00  0.0000E+00  0.0000E+00
     -3.443  0.0000E+00  0.0000E+00  0.0000E+00  0.0000E+00
     -3.357  0.0000E+00  0.0000E+00  0.0000E+00  0.0000E+00
     -3.271  0.7838E-09  0.7007E-09  0.6750E-10  0.6034E-10
     -3.185  0.3906E-03  0.3635E-03  0.3364E-04  0.3131E-04
     -3.098  0.7030E+00  0.6796E+00  0.6057E-01  0.5855E-01
     -3.012  0.8727E+01  0.8697E+01  0.8121E+00  0.8075E+00
     -2.926  0.2177E+01  0.2230E+01  0.9996E+00  0.9995E+00
     -2.840  0.5200E-02  0.5526E-02  0.1000E+01  0.1000E+01
     -2.754  0.4967E-07  0.5493E-07  0.1000E+01  0.1000E+01
     -2.668  0.1289E-14  0.2578E-14  0.1000E+01  0.1000E+01
     -2.582  0.0000E+00  0.0000E+00  0.1000E+01  0.1000E+01
     -2.496  0.0000E+00  0.0000E+00  0.1000E+01  0.1000E+01
     -2.410  0.0000E+00  0.0000E+00  0.1000E+01  0.1000E+01
     -2.323  0.0000E+00  0.0000E+00  0.1000E+01  0.1000E+01
     -2.237  0.0000E+00  0.0000E+00  0.1000E+01  0.1000E+01
     -2.151  0.0000E+00  0.0000E+00  0.1000E+01  0.1000E+01
     -2.065  0.8394E-08  0.7579E-08  0.1000E+01  0.1000E+01
     -1.979  0.1747E-02  0.1639E-02  0.1000E+01  0.1000E+01
     -1.893  0.1389E+01  0.1351E+01  0.1120E+01  0.1116E+01
     -1.807  0.1194E+02  0.1187E+02  0.2148E+01  0.2139E+01
     -1.721  0.2077E+02  0.2074E+02  0.3937E+01  0.3925E+01
     -1.635  0.1347E+02  0.1353E+02  0.5096E+01  0.5090E+01
     -1.548  0.9592E+01  0.9634E+01  0.5923E+01  0.5920E+01
     -1.462  0.4579E+01  0.4542E+01  0.6317E+01  0.6311E+01
     -1.376  0.7643E+01  0.7701E+01  0.6975E+01  0.6974E+01
     -1.290  0.2907E+00  0.3026E+00  0.7000E+01  0.7000E+01
     -1.204  0.6432E-04  0.6960E-04  0.7000E+01  0.7000E+01
     -1.118  0.4906E-10  0.5529E-10  0.7000E+01  0.7000E+01
     -1.032  0.0000E+00  0.0000E+00  0.7000E+01  0.7000E+01
     -0.946  0.6382E-13  0.5608E-13  0.7000E+01  0.7000E+01
     -0.859  0.7040E-06  0.6463E-06  0.7000E+01  0.7000E+01
     -0.773  0.2492E-01  0.2372E-01  0.7002E+01  0.7002E+01
     -0.687  0.3891E+01  0.3826E+01  0.7337E+01  0.7332E+01
     -0.601  0.7779E+01  0.7824E+01  0.8007E+01  0.8005E+01
     -0.515  0.9378E+01  0.9294E+01  0.8815E+01  0.8806E+01
     -0.429  0.1982E+02  0.1977E+02  0.1052E+02  0.1051E+02
     -0.343  0.1812E+02  0.1816E+02  0.1208E+02  0.1207E+02
     -0.257  0.1202E+02  0.1206E+02  0.1312E+02  0.1311E+02
     -0.171  0.1376E+02  0.1372E+02  0.1430E+02  0.1429E+02
     -0.084  0.1867E+02  0.1863E+02  0.1591E+02  0.1590E+02
      0.002  0.1946E+02  0.1952E+02  0.1759E+02  0.1758E+02
      0.088  0.9278E+01  0.9302E+01  0.1838E+02  0.1838E+02
      0.174  0.6969E+01  0.7032E+01  0.1898E+02  0.1898E+02
      0.260  0.1833E+00  0.1906E+00  0.1900E+02  0.1900E+02
      0.346  0.2631E-04  0.2833E-04  0.1900E+02  0.1900E+02
      0.432  0.1278E-10  0.1427E-10  0.1900E+02  0.1900E+02
      0.518  0.0000E+00  0.0000E+00  0.1900E+02  0.1900E+02
      0.605  0.3610E-12  0.3184E-12  0.1900E+02  0.1900E+02
      0.691  0.2337E-05  0.2143E-05  0.1900E+02  0.1900E+02
      0.777  0.4929E-01  0.4695E-01  0.1900E+02  0.1900E+02
      0.863  0.5009E+01  0.4931E+01  0.1944E+02  0.1943E+02
      0.949  0.1342E+02  0.1341E+02  0.2059E+02  0.2058E+02
      1.035  0.1434E+02  0.1428E+02  0.2183E+02  0.2181E+02
      1.121  0.1674E+02  0.1678E+02  0.2327E+02  0.2326E+02
      1.207  0.1366E+02  0.1362E+02  0.2444E+02  0.2443E+02
      1.293  0.1746E+02  0.1754E+02  0.2595E+02  0.2594E+02
      1.380  0.9334E+01  0.9331E+01  0.2675E+02  0.2675E+02
      1.466  0.2882E+01  0.2939E+01  0.2700E+02  0.2700E+02
      1.552  0.1075E-01  0.1132E-01  0.2700E+02  0.2700E+02
      1.638  0.1669E-06  0.1823E-06  0.2700E+02  0.2700E+02
      1.724  0.7735E-14  0.9025E-14  0.2700E+02  0.2700E+02
      1.810  0.0000E+00  0.0000E+00  0.2700E+02  0.2700E+02
      1.896  0.0000E+00  0.0000E+00  0.2700E+02  0.2700E+02
      1.982  0.6072E-08  0.5520E-08  0.2700E+02  0.2700E+02
      2.068  0.1427E-02  0.1345E-02  0.2700E+02  0.2700E+02
      2.155  0.1267E+01  0.1234E+01  0.2711E+02  0.2711E+02
      2.241  0.9038E+01  0.9035E+01  0.2789E+02  0.2788E+02
      2.327  0.6466E+01  0.6395E+01  0.2844E+02  0.2844E+02
      2.413  0.1689E+02  0.1696E+02  0.2990E+02  0.2990E+02
      2.499  0.6810E+01  0.6748E+01  0.3049E+02  0.3048E+02
      2.585  0.1540E+02  0.1543E+02  0.3181E+02  0.3181E+02
      2.671  0.9919E+01  0.9911E+01  0.3267E+02  0.3266E+02
      2.757  0.3853E+01  0.3929E+01  0.3300E+02  0.3300E+02
      2.844  0.2411E-01  0.2554E-01  0.3300E+02  0.3300E+02
      2.930  0.6647E-06  0.7347E-06  0.3300E+02  0.3300E+02
      3.016  0.8553E-09  0.7587E-09  0.3300E+02  0.3300E+02
      3.102  0.4131E-03  0.3825E-03  0.3300E+02  0.3300E+02
      3.188  0.7220E+00  0.6964E+00  0.3306E+02  0.3306E+02
      3.274  0.9512E+01  0.9454E+01  0.3388E+02  0.3387E+02
      3.360  0.1894E+02  0.1885E+02  0.3551E+02  0.3550E+02
      3.446  0.1977E+02  0.1983E+02  0.3721E+02  0.3721E+02
      3.532  0.1803E+02  0.1798E+02  0.3877E+02  0.3875E+02
      3.619  0.2010E+02  0.2009E+02  0.4050E+02  0.4048E+02
      3.705  0.3193E+02  0.3188E+02  0.4325E+02  0.4323E+02
      3.791  0.2354E+02  0.2361E+02  0.4527E+02  0.4526E+02
      3.877  0.3042E+02  0.3033E+02  0.4789E+02  0.4787E+02
      3.963  0.2351E+02  0.2362E+02  0.4992E+02  0.4991E+02
      4.049  0.1819E+02  0.1817E+02  0.5148E+02  0.5147E+02
      4.135  0.2316E+02  0.2311E+02  0.5348E+02  0.5346E+02
      4.221  0.2132E+02  0.2138E+02  0.5532E+02  0.5530E+02
      4.307  0.8192E+01  0.8293E+01  0.5602E+02  0.5602E+02
      4.394  0.8219E+01  0.8177E+01  0.5673E+02  0.5672E+02
      4.480  0.3141E+01  0.3205E+01  0.5700E+02  0.5700E+02
      4.566  0.1358E-01  0.1435E-01  0.5700E+02  0.5700E+02
      4.652  0.2559E-02  0.2407E-02  0.5700E+02  0.5700E+02
      4.738  0.2181E+01  0.2122E+01  0.5719E+02  0.5718E+02
      4.824  0.2222E+02  0.2210E+02  0.5910E+02  0.5909E+02
      4.910  0.2218E+02  0.2225E+02  0.6101E+02  0.6100E+02
      4.996  0.2152E+02  0.2145E+02  0.6286E+02  0.6285E+02
      5.083  0.2961E+02  0.2954E+02  0.6542E+02  0.6539E+02
      5.169  0.3264E+02  0.3266E+02  0.6823E+02  0.6821E+02
      5.255  0.2648E+02  0.2659E+02  0.7051E+02  0.7050E+02
      5.341  0.2187E+02  0.2181E+02  0.7239E+02  0.7237E+02
      5.427  0.2401E+02  0.2403E+02  0.7446E+02  0.7444E+02
      5.513  0.1712E+02  0.1720E+02  0.7593E+02  0.7592E+02
      5.599  0.1840E+02  0.1830E+02  0.7751E+02  0.7750E+02
      5.685  0.2020E+02  0.2027E+02  0.7925E+02  0.7924E+02
      5.771  0.1602E+02  0.1604E+02  0.8063E+02  0.8063E+02
      5.858  0.4230E+01  0.4311E+01  0.8100E+02  0.8100E+02
      5.944  0.2573E-01  0.2708E-01  0.8100E+02  0.8100E+02
      6.030  0.7411E-06  0.8100E-06  0.8100E+02  0.8100E+02
      6.116  0.6833E-13  0.7735E-13  0.8100E+02  0.8100E+02
      6.202  0.0000E+00  0.0000E+00  0.8100E+02  0.8100E+02
      6.288  0.0000E+00  0.0000E+00  0.8100E+02  0.8100E+02
      6.374  0.0000E+00  0.0000E+00  0.8100E+02  0.8100E+02
      6.460  0.0000E+00  0.0000E+00  0.8100E+02  0.8100E+02
      6.546  0.0000E+00  0.0000E+00  0.8100E+02  0.8100E+02
      6.633  0.0000E+00  0.0000E+00  0.8100E+02  0.8100E+02
      6.719  0.0000E+00  0.0000E+00  0.8100E+02  0.8100E+02
      6.805  0.0000E+00  0.0000E+00  0.8100E+02  0.8100E+02
      6.891  0.0000E+00  0.0000E+00  0.8100E+02  0.8100E+02
      6.977  0.6446E-15  0.6446E-15  0.8100E+02  0.8100E+02
      7.063  0.2001E-07  0.1798E-07  0.8100E+02  0.8100E+02
      7.149  0.2987E-02  0.2797E-02  0.8100E+02  0.8100E+02
      7.235  0.1736E+01  0.1689E+01  0.8115E+02  0.8115E+02
      7.322  0.9064E+01  0.9075E+01  0.8193E+02  0.8193E+02
      7.408  0.1069E+02  0.1057E+02  0.8285E+02  0.8284E+02
      7.494  0.2223E+02  0.2226E+02  0.8477E+02  0.8475E+02
      7.580  0.1488E+02  0.1493E+02  0.8605E+02  0.8604E+02
      7.666  0.1566E+02  0.1561E+02  0.8739E+02  0.8738E+02
      7.752  0.7611E+01  0.7698E+01  0.8805E+02  0.8805E+02
      7.838  0.1509E+02  0.1497E+02  0.8935E+02  0.8934E+02
      7.924  0.1748E+02  0.1752E+02  0.9085E+02  0.9084E+02
      8.010  0.1937E+02  0.1937E+02  0.9252E+02  0.9251E+02
      8.097  0.5509E+01  0.5616E+01  0.9300E+02  0.9300E+02
      8.183  0.5601E-01  0.5672E-01  0.9300E+02  0.9300E+02
      8.269  0.5453E+01  0.5320E+01  0.9347E+02  0.9346E+02
      8.355  0.1689E+02  0.1698E+02  0.9493E+02  0.9492E+02
      8.441  0.8237E+01  0.8191E+01  0.9564E+02  0.9563E+02
      8.527  0.1332E+02  0.1334E+02  0.9678E+02  0.9678E+02
      8.613  0.1251E+02  0.1248E+02  0.9786E+02  0.9785E+02
      8.699  0.2265E+02  0.2258E+02  0.9981E+02  0.9979E+02
      8.785  0.1976E+02  0.1979E+02  0.1015E+03  0.1015E+03
      8.872  0.2388E+02  0.2386E+02  0.1036E+03  0.1036E+03
      8.958  0.2432E+02  0.2430E+02  0.1057E+03  0.1056E+03
      9.044  0.2890E+02  0.2888E+02  0.1082E+03  0.1081E+03
      9.130  0.2397E+02  0.2406E+02  0.1102E+03  0.1102E+03
      9.216  0.1996E+02  0.1994E+02  0.1119E+03  0.1119E+03
      9.302  0.2238E+02  0.2237E+02  0.1139E+03  0.1138E+03
      9.388  0.1997E+02  0.2000E+02  0.1156E+03  0.1156E+03
      9.474  0.2058E+02  0.2058E+02  0.1174E+03  0.1173E+03
      9.561  0.2728E+02  0.2726E+02  0.1197E+03  0.1197E+03
      9.647  0.1698E+02  0.1706E+02  0.1212E+03  0.1212E+03
      9.733  0.1126E+02  0.1128E+02  0.1221E+03  0.1221E+03
      9.819  0.9421E+01  0.9451E+01  0.1229E+03  0.1229E+03
      9.905  0.9543E+01  0.9445E+01  0.1238E+03  0.1238E+03
      9.991  0.1654E+02  0.1657E+02  0.1252E+03  0.1252E+03
     10.077  0.1579E+02  0.1575E+02  0.1266E+03  0.1265E+03
     10.163  0.2314E+02  0.2313E+02  0.1285E+03  0.1285E+03
     10.249  0.1814E+02  0.1814E+02  0.1301E+03  0.1301E+03
     10.336  0.2586E+02  0.2584E+02  0.1323E+03  0.1323E+03
     10.422  0.1988E+02  0.1992E+02  0.1340E+03  0.1340E+03
     10.508  0.1490E+02  0.1493E+02  0.1353E+03  0.1353E+03
     10.594  0.2160E+02  0.2153E+02  0.1372E+03  0.1372E+03
     10.680  0.2237E+02  0.2234E+02  0.1391E+03  0.1391E+03
     10.766  0.2256E+02  0.2265E+02  0.1411E+03  0.1410E+03
     10.852  0.2009E+02  0.2003E+02  0.1428E+03  0.1428E+03
     10.938  0.1930E+02  0.1936E+02  0.1445E+03  0.1444E+03
     11.024  0.1111E+02  0.1113E+02  0.1454E+03  0.1454E+03
     11.111  0.1099E+02  0.1100E+02  0.1464E+03  0.1463E+03
     11.197  0.1029E+02  0.1029E+02  0.1472E+03  0.1472E+03
     11.283  0.8595E+01  0.8641E+01  0.1480E+03  0.1480E+03
     11.369  0.1259E+02  0.1242E+02  0.1491E+03  0.1490E+03
     11.455  0.2127E+02  0.2139E+02  0.1509E+03  0.1509E+03
     11.541  0.1355E+02  0.1350E+02  0.1521E+03  0.1521E+03
     11.627  0.2595E+02  0.2590E+02  0.1543E+03  0.1543E+03
     11.713  0.1710E+02  0.1720E+02  0.1558E+03  0.1558E+03
     11.800  0.1636E+02  0.1623E+02  0.1572E+03  0.1572E+03
     11.886  0.2541E+02  0.2547E+02  0.1594E+03  0.1594E+03
     11.972  0.2750E+02  0.2744E+02  0.1617E+03  0.1617E+03
     12.058  0.2505E+02  0.2514E+02  0.1639E+03  0.1639E+03
     12.144  0.1975E+02  0.1970E+02  0.1656E+03  0.1656E+03
     12.230  0.1739E+02  0.1745E+02  0.1671E+03  0.1671E+03
     12.316  0.1725E+02  0.1726E+02  0.1686E+03  0.1686E+03
     12.402  0.1064E+02  0.1064E+02  0.1695E+03  0.1695E+03
     12.488  0.1449E+02  0.1452E+02  0.1707E+03  0.1707E+03
     12.575  0.3004E+01  0.3076E+01  0.1710E+03  0.1710E+03
     12.661  0.1336E+01  0.1302E+01  0.1711E+03  0.1711E+03
     12.747  0.9044E+01  0.9043E+01  0.1719E+03  0.1719E+03
     12.833  0.5244E+01  0.5206E+01  0.1723E+03  0.1723E+03
     12.919  0.1334E+02  0.1333E+02  0.1735E+03  0.1735E+03
     13.005  0.5958E+01  0.6033E+01  0.1740E+03  0.1740E+03
     13.091  0.8207E+01  0.8100E+01  0.1747E+03  0.1747E+03
     13.177  0.1700E+02  0.1702E+02  0.1762E+03  0.1762E+03
     13.264  0.1053E+02  0.1058E+02  0.1771E+03  0.1771E+03
     13.350  0.9400E+01  0.9414E+01  0.1779E+03  0.1779E+03
     13.436  0.3068E+01  0.3061E+01  0.1782E+03  0.1782E+03
     13.522  0.8900E+01  0.8916E+01  0.1789E+03  0.1789E+03
     13.608  0.1773E+01  0.1772E+01  0.1791E+03  0.1791E+03
     13.694  0.9539E+01  0.9497E+01  0.1799E+03  0.1799E+03
     13.780  0.1585E+02  0.1577E+02  0.1813E+03  0.1813E+03
     13.866  0.1959E+02  0.1960E+02  0.1829E+03  0.1829E+03
     13.952  0.1596E+02  0.1601E+02  0.1843E+03  0.1843E+03
     14.039  0.1308E+02  0.1305E+02  0.1855E+03  0.1854E+03
     14.125  0.1808E+02  0.1812E+02  0.1870E+03  0.1870E+03
     14.211  0.1301E+02  0.1298E+02  0.1881E+03  0.1881E+03
     14.297  0.2415E+02  0.2406E+02  0.1902E+03  0.1902E+03
     14.383  0.2758E+02  0.2760E+02  0.1926E+03  0.1926E+03
     14.469  0.2090E+02  0.2097E+02  0.1944E+03  0.1944E+03
     14.555  0.1752E+02  0.1752E+02  0.1959E+03  0.1959E+03
     14.641  0.1984E+02  0.1980E+02  0.1976E+03  0.1976E+03
     14.727  0.2479E+02  0.2440E+02  0.1997E+03  0.1997E+03
     14.814  0.2163E+02  0.2205E+02  0.2016E+03  0.2016E+03
     14.900  0.2244E+02  0.2237E+02  0.2035E+03  0.2035E+03
     14.986  0.2844E+02  0.2844E+02  0.2060E+03  0.2060E+03
     15.072  0.3044E+02  0.3045E+02  0.2086E+03  0.2086E+03
     15.158  0.2016E+02  0.2025E+02  0.2103E+03  0.2103E+03
     15.244  0.1357E+02  0.1353E+02  0.2115E+03  0.2115E+03
     15.330  0.2817E+02  0.2811E+02  0.2139E+03  0.2139E+03
     15.416  0.2536E+02  0.2540E+02  0.2161E+03  0.2161E+03
     15.503  0.2115E+02  0.2112E+02  0.2179E+03  0.2179E+03
     15.589  0.3550E+02  0.3547E+02  0.2210E+03  0.2210E+03
     15.675  0.2231E+02  0.2237E+02  0.2229E+03  0.2229E+03
     15.761  0.2475E+02  0.2471E+02  0.2250E+03  0.2250E+03
     15.847  0.3539E+02  0.3537E+02  0.2281E+03  0.2281E+03
     15.933  0.2771E+02  0.2772E+02  0.2305E+03  0.2305E+03
     16.019  0.3317E+02  0.3318E+02  0.2333E+03  0.2333E+03
     16.105  0.1706E+02  0.1719E+02  0.2348E+03  0.2348E+03
     16.191  0.8640E+01  0.8577E+01  0.2356E+03  0.2355E+03
     16.278  0.2325E+02  0.2321E+02  0.2376E+03  0.2375E+03
     16.364  0.1661E+02  0.1670E+02  0.2390E+03  0.2390E+03
     16.450  0.1664E+02  0.1658E+02  0.2404E+03  0.2404E+03
     16.536  0.1720E+02  0.1717E+02  0.2419E+03  0.2419E+03
     16.622  0.2239E+02  0.2246E+02  0.2438E+03  0.2438E+03
     16.708  0.1217E+02  0.1218E+02  0.2449E+03  0.2449E+03
     16.794  0.1547E+02  0.1544E+02  0.2462E+03  0.2462E+03
     16.880  0.1595E+02  0.1598E+02  0.2476E+03  0.2476E+03
     16.966  0.9062E+01  0.9074E+01  0.2484E+03  0.2484E+03
     17.053  0.8510E+01  0.8538E+01  0.2491E+03  0.2491E+03
     17.139  0.1081E+02  0.1077E+02  0.2500E+03  0.2500E+03
     17.225  0.1029E+02  0.1034E+02  0.2509E+03  0.2509E+03
     17.311  0.1053E+01  0.1087E+01  0.2510E+03  0.2510E+03
     17.397  0.9375E-03  0.1007E-02  0.2510E+03  0.2510E+03
     17.483  0.3107E-08  0.3480E-08  0.2510E+03  0.2510E+03
     17.569  0.0000E+00  0.0000E+00  0.2510E+03  0.2510E+03
     17.655  0.1571E-07  0.1424E-07  0.2510E+03  0.2510E+03
     17.742  0.2579E-02  0.2428E-02  0.2510E+03  0.2510E+03
     17.828  0.1709E+01  0.1665E+01  0.2511E+03  0.2511E+03
     17.914  0.1453E+02  0.1447E+02  0.2524E+03  0.2524E+03
     18.000  0.6888E+01  0.6991E+01  0.2530E+03  0.2530E+03
     18.086  0.1446E+00  0.1465E+00  0.2530E+03  0.2530E+03
     18.172  0.7003E+01  0.6870E+01  0.2536E+03  0.2536E+03
     18.258  0.1543E+02  0.1553E+02  0.2549E+03  0.2549E+03
     18.344  0.6793E+01  0.6705E+01  0.2555E+03  0.2555E+03
     18.430  0.1661E+02  0.1667E+02  0.2570E+03  0.2569E+03
     18.517  0.1303E+02  0.1296E+02  0.2581E+03  0.2581E+03
     18.603  0.1098E+02  0.1107E+02  0.2590E+03  0.2590E+03
     18.689  0.1809E+02  0.1792E+02  0.2606E+03  0.2606E+03
     18.775  0.1962E+02  0.1974E+02  0.2623E+03  0.2623E+03
     18.861  0.1487E+02  0.1483E+02  0.2635E+03  0.2635E+03
     18.947  0.2007E+02  0.2005E+02  0.2653E+03  0.2653E+03
     19.033  0.3069E+02  0.3053E+02  0.2679E+03  0.2679E+03
     19.119  0.3872E+02  0.3878E+02  0.2713E+03  0.2712E+03
     19.205  0.3025E+02  0.3028E+02  0.2739E+03  0.2738E+03
     19.292  0.2950E+02  0.2956E+02  0.2764E+03  0.2764E+03
     19.378  0.2280E+02  0.2273E+02  0.2784E+03  0.2783E+03
     19.464  0.3176E+02  0.3177E+02  0.2811E+03  0.2811E+03
     19.550  0.2778E+02  0.2778E+02  0.2835E+03  0.2835E+03
     19.636  0.3929E+02  0.3923E+02  0.2869E+03  0.2868E+03
     19.722  0.2523E+02  0.2542E+02  0.2890E+03  0.2890E+03
     19.808  0.2195E+02  0.2194E+02  0.2909E+03  0.2909E+03
     19.894  0.2558E+02  0.2567E+02  0.2931E+03  0.2931E+03
     19.981  0.2204E+02  0.2264E+02  0.2950E+03  0.2951E+03
     20.067  0.2335E+02  0.2286E+02  0.2970E+03  0.2971E+03
     20.153  0.2299E+02  0.2184E+02  0.2990E+03  0.2989E+03
     20.239  0.1935E+02  0.2539E+02  0.3007E+03  0.3011E+03
     20.325  0.2520E+02  0.1232E+02  0.3029E+03  0.3022E+03
     20.411  0.1221E+02  0.1102E+02  0.3039E+03  0.3031E+03
     20.497  0.9832E+00  0.9366E+01  0.3040E+03  0.3039E+03
     20.583  0.7947E-03  0.7033E+00  0.3040E+03  0.3040E+03
     20.669  0.2391E-08  0.3906E-03  0.3040E+03  0.3040E+03
     20.756  0.0000E+00  0.7838E-09  0.3040E+03  0.3040E+03
     20.842  0.0000E+00  0.0000E+00  0.3040E+03  0.3040E+03
     20.928  0.0000E+00  0.0000E+00  0.3040E+03  0.3040E+03
     21.014  0.0000E+00  0.0000E+00  0.3040E+03  0.3040E+03
     21.100  0.0000E+00  0.0000E+00  0.3040E+03  0.3040E+03
     21.186  0.0000E+00  0.0000E+00  0.3040E+03  0.3040E+03
     21.272  0.0000E+00  0.0000E+00  0.3040E+03  0.3040E+03
     21.358  0.0000E+00  0.0000E+00  0.3040E+03  0.3040E+03
     21.444  0.0000E+00  0.0000E+00  0.3040E+03  0.3040E+03
     21.531  0.0000E+00  0.0000E+00  0.3040E+03  0.3040E+03
     21.617  0.0000E+00  0.0000E+00  0.3040E+03  0.3040E+03
