  100  100    1    2
  0.1064800E+02  0.1021149E-08  0.1021149E-08  0.1021149E-08  0.5000000E-15
  1.000000000000000E-004
  CAR 
 unknown system                          
    400      1    304
 
  0.0000000E+00  0.0000000E+00  0.0000000E+00  0.1000000E+01
    1       -3.043666     -3.043064   1.000000   1.000000
    2       -1.851168     -1.850587   1.000000   1.000000
    3       -1.776894     -1.776340   1.000000   1.000000
    4       -1.749409     -1.748790   1.000000   1.000000
    5       -1.690858     -1.690214   1.000000   1.000000
    6       -1.598241     -1.597580   1.000000   1.000000
    7       -1.445424     -1.444817   1.000000   1.000000
    8       -0.672373     -0.671821   1.000000   1.000000
    9       -0.534055     -0.533489   1.000000   1.000000
   10       -0.469288     -0.468659   1.000000   1.000000
   11       -0.434620     -0.433991   1.000000   1.000000
   12       -0.380195     -0.379618   1.000000   1.000000
   13       -0.316762     -0.316102   1.000000   1.000000
   14       -0.221347     -0.220746   1.000000   1.000000
   15       -0.158052     -0.157420   1.000000   1.000000
   16       -0.091947     -0.091372   1.000000   1.000000
   17       -0.068693     -0.068156   1.000000   1.000000
   18       -0.008099     -0.007461   1.000000   1.000000
   19        0.097924      0.098472   1.000000   1.000000
   20        0.869796      0.870377   1.000000   1.000000
   21        0.941109      0.941664   1.000000   1.000000
   22        1.025849      1.026417   1.000000   1.000000
   23        1.061829      1.062484   1.000000   1.000000
   24        1.138157      1.138818   1.000000   1.000000
   25        1.227900      1.228516   1.000000   1.000000
   26        1.238563      1.239167   1.000000   1.000000
   27        1.355594      1.356141   1.000000   1.000000
   28        2.198104      2.198641   1.000000   1.000000
   29        2.347093      2.347669   1.000000   1.000000
   30        2.361798      2.362325   1.000000   1.000000
   31        2.505314      2.505953   1.000000   1.000000
   32        2.555232      2.555796   1.000000   1.000000
   33        2.656055      2.656703   1.000000   1.000000
   34        3.242306      3.242951   1.000000   1.000000
   35        3.331453      3.332047   1.000000   1.000000
   36        3.352642      3.353223   1.000000   1.000000
   37        3.399241      3.399856   1.000000   1.000000
   38        3.465372      3.465972   1.000000   1.000000
   39        3.522649      3.523342   1.000000   1.000000
   40        3.564371      3.565020   1.000000   1.000000
   41        3.627241      3.627866   1.000000   1.000000
   42        3.666369      3.666904   1.000000   1.000000
   43        3.671384      3.671966   1.000000   1.000000
   44        3.710179      3.710717   1.000000   1.000000
   45        3.743757      3.744409   1.000000   1.000000
   46        3.813405      3.813951   1.000000   1.000000
   47        3.835863      3.836467   1.000000   1.000000
   48        3.876217      3.876819   1.000000   1.000000
   49        3.877031      3.877583   1.000000   1.000000
   50        3.936533      3.937094   1.000000   1.000000
   51        3.999373      3.999941   1.000000   1.000000
   52        4.049279      4.049862   1.000000   1.000000
   53        4.105389      4.106021   1.000000   1.000000
   54        4.130744      4.131307   1.000000   1.000000
   55        4.174881      4.175503   1.000000   1.000000
   56        4.228950      4.229614   1.000000   1.000000
   57        4.372108      4.372698   1.000000   1.000000
   58        4.777344      4.777903   1.000000   1.000000
   59        4.795195      4.795748   1.000000   1.000000
   60        4.841657      4.842222   1.000000   1.000000
   61        4.871612      4.872250   1.000000   1.000000
   62        4.945888      4.946451   1.000000   1.000000
   63        4.985094      4.985694   1.000000   1.000000
   64        5.016581      5.017167   1.000000   1.000000
   65        5.065348      5.066017   1.000000   1.000000
   66        5.087791      5.088388   1.000000   1.000000
   67        5.101005      5.101643   1.000000   1.000000
   68        5.157514      5.158099   1.000000   1.000000
   69        5.177216      5.177837   1.000000   1.000000
   70        5.194788      5.195336   1.000000   1.000000
   71        5.252478      5.253068   1.000000   1.000000
   72        5.322018      5.322534   1.000000   1.000000
   73        5.333151      5.333741   1.000000   1.000000
   74        5.386519      5.387104   1.000000   1.000000
   75        5.427740      5.428359   1.000000   1.000000
   76        5.473057      5.473649   1.000000   1.000000
   77        5.569302      5.569930   1.000000   1.000000
   78        5.594803      5.595334   1.000000   1.000000
   79        5.634080      5.634658   1.000000   1.000000
   80        5.702653      5.703250   1.000000   1.000000
   81        5.756921      5.757498   1.000000   1.000000
   82        7.272087      7.272710   1.000000   1.000000
   83        7.403750      7.404305   1.000000   1.000000
   84        7.427590      7.428198   1.000000   1.000000
   85        7.480027      7.480534   1.000000   1.000000
   86        7.530391      7.530936   1.000000   1.000000
   87        7.620988      7.621603   1.000000   1.000000
   88        7.666321      7.666950   1.000000   1.000000
   89        7.810910      7.811584   1.000000   1.000000
   90        7.834807      7.835405   1.000000   1.000000
   91        7.904225      7.904789   1.000000   1.000000
   92        7.964277      7.964894   1.000000   1.000000
   93        7.999694      8.000280   1.000000   1.000000
   94        8.290992      8.291649   1.000000   1.000000
   95        8.297788      8.298474   1.000000   1.000000
   96        8.432423      8.433050   1.000000   1.000000
   97        8.503331      8.503882   1.000000   1.000000
   98        8.590764      8.591302   1.000000   1.000000
   99        8.660717      8.661334   1.000000   1.000000
  100        8.678624      8.679207   1.000000   1.000000
  101        8.726425      8.727035   1.000000   1.000000
  102        8.792909      8.793526   1.000000   1.000000
  103        8.824572      8.825145   1.000000   1.000000
  104        8.870197      8.870785   1.000000   1.000000
  105        8.908511      8.909137   1.000000   1.000000
  106        8.957907      8.958510   1.000000   1.000000
  107        8.984635      8.985247   1.000000   1.000000
  108        9.027166      9.027792   1.000000   1.000000
  109        9.051006      9.051594   1.000000   1.000000
  110        9.088724      9.089319   1.000000   1.000000
  111        9.145515      9.146106   1.000000   1.000000
  112        9.202491      9.203067   1.000000   1.000000
  113        9.235155      9.235746   1.000000   1.000000
  114        9.296799      9.297420   1.000000   1.000000
  115        9.317958      9.318531   1.000000   1.000000
  116        9.394396      9.395004   1.000000   1.000000
  117        9.421092      9.421693   1.000000   1.000000
  118        9.492380      9.492932   1.000000   1.000000
  119        9.520883      9.521482   1.000000   1.000000
  120        9.540337      9.540976   1.000000   1.000000
  121        9.598022      9.598585   1.000000   1.000000
  122        9.670373      9.670901   1.000000   1.000000
  123        9.765975      9.766502   1.000000   1.000000
  124        9.897470      9.898029   1.000000   1.000000
  125        9.936976      9.937608   1.000000   1.000000
  126       10.014634     10.015286   1.000000   1.000000
  127       10.078801     10.079389   1.000000   1.000000
  128       10.124973     10.125590   1.000000   1.000000
  129       10.149759     10.150401   1.000000   1.000000
  130       10.224680     10.225261   1.000000   1.000000
  131       10.267813     10.268414   1.000000   1.000000
  132       10.312407     10.312965   1.000000   1.000000
  133       10.328589     10.329188   1.000000   1.000000
  134       10.397868     10.398426   1.000000   1.000000
  135       10.440214     10.440782   1.000000   1.000000
  136       10.524463     10.525000   1.000000   1.000000
  137       10.572485     10.573045   1.000000   1.000000
  138       10.596550     10.597151   1.000000   1.000000
  139       10.675984     10.676553   1.000000   1.000000
  140       10.683589     10.684165   1.000000   1.000000
  141       10.721526     10.722084   1.000000   1.000000
  142       10.802282     10.802906   1.000000   1.000000
  143       10.836682     10.837310   1.000000   1.000000
  144       10.883392     10.883997   1.000000   1.000000
  145       10.937607     10.938168   1.000000   1.000000
  146       11.032351     11.033008   1.000000   1.000000
  147       11.122640     11.123211   1.000000   1.000000
  148       11.219660     11.220253   1.000000   1.000000
  149       11.360236     11.360879   1.000000   1.000000
  150       11.379868     11.380471   1.000000   1.000000
  151       11.416814     11.417397   1.000000   1.000000
  152       11.511379     11.511963   1.000000   1.000000
  153       11.569233     11.569774   1.000000   1.000000
  154       11.603913     11.604502   1.000000   1.000000
  155       11.621806     11.622428   1.000000   1.000000
  156       11.688706     11.689326   1.000000   1.000000
  157       11.791438     11.792093   1.000000   1.000000
  158       11.805570     11.806147   1.000000   1.000000
  159       11.835534     11.836141   1.000000   1.000000
  160       11.898065     11.898660   1.000000   1.000000
  161       11.935773     11.936367   1.000000   1.000000
  162       11.958330     11.958967   1.000000   1.000000
  163       12.003750     12.004270   1.000000   1.000000
  164       12.022022     12.022620   1.000000   1.000000
  165       12.103619     12.104237   1.000000   1.000000
  166       12.134218     12.134841   1.000000   1.000000
  167       12.187250     12.187853   1.000000   1.000000
  168       12.261296     12.261903   1.000000   1.000000
  169       12.304395     12.304975   1.000000   1.000000
  170       12.406227     12.406857   1.000000   1.000000
  171       12.464563     12.465200   1.000000   1.000000
  172       12.703265     12.703823   1.000000   1.000000
  173       12.847841     12.848423   1.000000   1.000000
  174       12.917669     12.918239   1.000000   1.000000
  175       13.083804     13.084385   1.000000   1.000000
  176       13.131368     13.131984   1.000000   1.000000
  177       13.198280     13.198806   1.000000   1.000000
  178       13.305711     13.306263   1.000000   1.000000
  179       13.471262     13.471779   1.000000   1.000000
  180       13.658488     13.659039   1.000000   1.000000
  181       13.752425     13.753047   1.000000   1.000000
  182       13.784007     13.784580   1.000000   1.000000
  183       13.852751     13.853297   1.000000   1.000000
  184       13.883991     13.884542   1.000000   1.000000
  185       13.965966     13.966538   1.000000   1.000000
  186       14.056315     14.056833   1.000000   1.000000
  187       14.073293     14.073875   1.000000   1.000000
  188       14.168719     14.169285   1.000000   1.000000
  189       14.240534     14.241048   1.000000   1.000000
  190       14.271734     14.272281   1.000000   1.000000
  191       14.310148     14.310709   1.000000   1.000000
  192       14.334872     14.335511   1.000000   1.000000
  193       14.387467     14.388027   1.000000   1.000000
  194       14.408370     14.408922   1.000000   1.000000
  195       14.478760     14.479316   1.000000   1.000000
  196       14.529660     14.530202   1.000000   1.000000
  197       14.596637     14.597181   0.999962   0.999959
  198       14.627336     14.627928   0.998986   0.998927
  199       14.705704     14.706836   0.807708   0.798834
  200       14.723082     14.724616   0.647264   0.631019
  201       14.732311     14.733931   0.546535   0.528340
  202       14.807906     14.808506   0.021628   0.020765
  203       14.879385     14.879917   0.000026   0.000025
  204       14.886628     14.887203   0.000011   0.000010
  205       14.938449     14.939036   0.000000   0.000000
  206       14.963438     14.964021   0.000000   0.000000
  207       15.008267     15.008881   0.000000   0.000000
  208       15.042832     15.043391   0.000000   0.000000
  209       15.058188     15.058746   0.000000   0.000000
  210       15.103138     15.103704   0.000000   0.000000
  211       15.167204     15.167776   0.000000   0.000000
  212       15.258576     15.259201   0.000000   0.000000
  213       15.278778     15.279379   0.000000   0.000000
  214       15.327041     15.327590   0.000000   0.000000
  215       15.333726     15.334290   0.000000   0.000000
  216       15.400900     15.401431   0.000000   0.000000
  217       15.421030     15.421590   0.000000   0.000000
  218       15.495531     15.496059   0.000000   0.000000
  219       15.524587     15.525212   0.000000   0.000000
  220       15.555410     15.555930   0.000000   0.000000
  221       15.567722     15.568356   0.000000   0.000000
  222       15.592205     15.592733   0.000000   0.000000
  223       15.658481     15.659042   0.000000   0.000000
  224       15.702375     15.703017   0.000000   0.000000
  225       15.740624     15.741146   0.000000   0.000000
  226       15.786525     15.787073   0.000000   0.000000
  227       15.807408     15.807999   0.000000   0.000000
  228       15.819565     15.820150   0.000000   0.000000
  229       15.852680     15.853230   0.000000   0.000000
  230       15.907247     15.907878   0.000000   0.000000
  231       15.929288     15.929857   0.000000   0.000000
  232       15.973799     15.974373   0.000000   0.000000
  233       15.994725     15.995272   0.000000   0.000000
  234       16.007567     16.008179   0.000000   0.000000
  235       16.074638     16.075300   0.000000   0.000000
  236       16.202708     16.203263   0.000000   0.000000
  237       16.225335     16.225996   0.000000   0.000000
  238       16.277932     16.278537   0.000000   0.000000
  239       16.315147     16.315743   0.000000   0.000000
  240       16.417891     16.418470   0.000000   0.000000
  241       16.442480     16.443055   0.000000   0.000000
  242       16.524495     16.525083   0.000000   0.000000
  243       16.564933     16.565579   0.000000   0.000000
  244       16.588174     16.588789   0.000000   0.000000
  245       16.679928     16.680487   0.000000   0.000000
  246       16.756853     16.757427   0.000000   0.000000
  247       16.809100     16.809666   0.000000   0.000000
  248       16.871528     16.872129   0.000000   0.000000
  249       16.978868     16.979467   0.000000   0.000000
  250       17.095834     17.096462   0.000000   0.000000
  251       17.177554     17.178185   0.000000   0.000000
  252       17.865717     17.866284   0.000000   0.000000
  253       17.915019     17.915612   0.000000   0.000000
  254       18.180962     18.181597   0.000000   0.000000
  255       18.201073     18.201668   0.000000   0.000000
  256       18.355821     18.356435   0.000000   0.000000
  257       18.381261     18.381829   0.000000   0.000000
  258       18.488920     18.489501   0.000000   0.000000
  259       18.536052     18.536704   0.000000   0.000000
  260       18.665271     18.665829   0.000000   0.000000
  261       18.686028     18.686585   0.000000   0.000000
  262       18.707655     18.708280   0.000000   0.000000
  263       18.793994     18.794596   0.000000   0.000000
  264       18.861346     18.861978   0.000000   0.000000
  265       18.911638     18.912213   0.000000   0.000000
  266       18.956556     18.957128   0.000000   0.000000
  267       19.015664     19.016236   0.000000   0.000000
  268       19.029224     19.029855   0.000000   0.000000
  269       19.030330     19.031017   0.000000   0.000000
  270       19.073639     19.074222   0.000000   0.000000
  271       19.098242     19.098887   0.000000   0.000000
  272       19.124882     19.125451   0.000000   0.000000
  273       19.150681     19.151226   0.000000   0.000000
  274       19.199200     19.199835   0.000000   0.000000
  275       19.232938     19.233478   0.000000   0.000000
  276       19.244742     19.245374   0.000000   0.000000
  277       19.290376     19.290974   0.000000   0.000000
  278       19.361816     19.362441   0.000000   0.000000
  279       19.380982     19.381532   0.000000   0.000000
  280       19.406419     19.407001   0.000000   0.000000
  281       19.450695     19.451310   0.000000   0.000000
  282       19.472310     19.472915   0.000000   0.000000
  283       19.507425     19.507993   0.000000   0.000000
  284       19.570979     19.571571   0.000000   0.000000
  285       19.581413     19.581973   0.000000   0.000000
  286       19.587325     19.587907   0.000000   0.000000
  287       19.631500     19.632143   0.000000   0.000000
  288       19.656938     19.657484   0.000000   0.000000
  289       19.663145     19.663741   0.000000   0.000000
  290       19.768548     19.769140   0.000000   0.000000
  291       19.786801     19.787147   0.000000   0.000000
  292       19.825406     19.825464   0.000000   0.000000
  293       19.883499     19.883647   0.000000   0.000000
  294       19.895534     19.896129   0.000000   0.000000
  295       19.950571     19.948102   0.000000   0.000000
  296       20.007717     20.005324   0.000000   0.000000
  297       20.051255     20.044374   0.000000   0.000000
  298       20.078857     20.081577   0.000000   0.000000
  299       20.121075     20.135629   0.000000   0.000000
  300       20.179575     20.180538   0.000000   0.000000
  301       20.238416     20.209268   0.000000   0.000000
  302       20.270665     20.250128   0.000000   0.000000
  303       20.296721     20.354619   0.000000   0.000000
  304       20.362382     20.442419   0.000000   0.000000
