       N       E                     dE             d eps       ncg     rms          rms(c)
RMM:   1     0.137731748004E+04    0.13773E+04   -0.74671E+04   608   0.514E+02
RMM:   2     0.474553072777E+01   -0.13726E+04   -0.13160E+04   608   0.120E+02
RMM:   3    -0.282863772826E+03   -0.28761E+03   -0.27955E+03   608   0.492E+01
RMM:   4    -0.361171394730E+03   -0.78308E+02   -0.66293E+02   608   0.280E+01
RMM:   5    -0.386405677538E+03   -0.25234E+02   -0.20430E+02   608   0.126E+01
RMM:   6    -0.395728170616E+03   -0.93225E+01   -0.71208E+01   608   0.745E+00
RMM:   7    -0.399152241369E+03   -0.34241E+01   -0.28129E+01   608   0.375E+00
RMM:   8    -0.400570365294E+03   -0.14181E+01   -0.11504E+01   608   0.233E+00
RMM:   9    -0.401418192185E+03   -0.84783E+00   -0.77474E+00  1495   0.125E+00
RMM:  10    -0.401524234479E+03   -0.10604E+00   -0.48494E-01  1408   0.236E-01
RMM:  11    -0.401526048909E+03   -0.18144E-02   -0.12169E-02  1326   0.396E-02
RMM:  12    -0.401526062530E+03   -0.13621E-04   -0.13389E-04  1087   0.556E-03    0.612E+01
RMM:  13    -0.407301552126E+03   -0.57755E+01   -0.98735E+00  1349   0.343E+00    0.368E+01
RMM:  14    -0.415166225076E+03   -0.78647E+01   -0.54822E+00  1347   0.279E+00    0.174E+01
RMM:  15    -0.415728276086E+03   -0.56205E+00   -0.12568E+00  1383   0.114E+00    0.396E+00
RMM:  16    -0.415912112438E+03   -0.18384E+00   -0.34734E-01  1396   0.695E-01    0.265E+00
RMM:  17    -0.416026323012E+03   -0.11421E+00   -0.10899E-01  1429   0.326E-01    0.140E+00
RMM:  18    -0.416073363647E+03   -0.47041E-01   -0.39909E-02  1401   0.229E-01    0.625E-01
RMM:  19    -0.416082116059E+03   -0.87524E-02   -0.10993E-02  1421   0.117E-01    0.269E-01
RMM:  20    -0.416084227379E+03   -0.21113E-02   -0.28058E-03  1451   0.595E-02    0.145E-01
RMM:  21    -0.416085023393E+03   -0.79601E-03   -0.11707E-03  1414   0.400E-02    0.952E-02
RMM:  22    -0.416085550433E+03   -0.52704E-03   -0.78862E-04  1404   0.339E-02    0.667E-02
RMM:  23    -0.416085934415E+03   -0.38398E-03   -0.78249E-04  1392   0.342E-02    0.454E-02
RMM:  24    -0.416086158529E+03   -0.22411E-03   -0.59841E-04  1390   0.298E-02    0.289E-02
RMM:  25    -0.416086269777E+03   -0.11125E-03   -0.38427E-04  1399   0.237E-02    0.176E-02
RMM:  26    -0.416086324423E+03   -0.54646E-04   -0.26173E-04  1381   0.196E-02    0.985E-03
RMM:  27    -0.416086345617E+03   -0.21194E-04   -0.12647E-04  1413   0.135E-02    0.518E-03
RMM:  28    -0.416086352883E+03   -0.72659E-05   -0.54140E-05  1410   0.874E-03
   1 F= -.41608635E+03 E0= -.41604735E+03  d E =-.780117E-01  mag=     0.0199
