 vasp.5.4.4.18Apr17-6-g9f103f2a35 (build Sep 16 2020 16:20:45) complex          
  
 executed on             LinuxIFC date 2021.08.10  00:47:16
 running on   16 total cores
 distrk:  each k-point on   16 cores,    1 groups
 distr:  one band on NCORES_PER_BAND=   1 cores,   16 groups


--------------------------------------------------------------------------------------------------------


 INCAR:
 POTCAR:    PAW_PBE Si 05Jan2001                  

 ----------------------------------------------------------------------------- 
|                                                                             |
|           W    W    AA    RRRRR   N    N  II  N    N   GGGG   !!!           |
|           W    W   A  A   R    R  NN   N  II  NN   N  G    G  !!!           |
|           W    W  A    A  R    R  N N  N  II  N N  N  G       !!!           |
|           W WW W  AAAAAA  RRRRR   N  N N  II  N  N N  G  GGG   !            |
|           WW  WW  A    A  R   R   N   NN  II  N   NN  G    G                |
|           W    W  A    A  R    R  N    N  II  N    N   GGGG   !!!           |
|                                                                             |
|      For optimal performance we recommend to set                            |
|        NCORE= 4 - approx SQRT( number of cores)                             |
|      NCORE specifies how many cores store one orbital (NPAR=cpu/NCORE).     |
|      This setting can  greatly improve the performance of VASP for DFT.     |
|      The default,   NCORE=1            might be grossly inefficient         |
|      on modern multi-core architectures or massively parallel machines.     |
|      Do your own testing !!!!                                               |
|      Unfortunately you need to use the default for GW and RPA calculations. |
|      (for HF NCORE is supported but not extensively tested yet)             |
|                                                                             |
 ----------------------------------------------------------------------------- 

 POTCAR:    PAW_PBE Si 05Jan2001                  
   SHA256 =  79d9987ad8750f624c4d6acb2a16d13abf6a777132adc04dc6c8399be72b42bb Si
   COPYR  = (c) Copyright 05Jan2001 Georg Kresse                                
   COPYR  = This file is part of the software VASP. Any use, copying, and all ot
   COPYR  = If you do not have a valid VASP license, you may not use, copy or di
   VRHFIN =Si: s2p2                                                             
   LEXCH  = PE                                                                  
   EATOM  =   103.0669 eV,    7.5752 Ry                                         
                                                                                
   TITEL  = PAW_PBE Si 05Jan2001                                                
   LULTRA =        F    use ultrasoft PP ?                                      
   IUNSCR =        1    unscreen: 0-lin 1-nonlin 2-no                           
   RPACOR =    1.500    partial core radius                                     
   POMASS =   28.085; ZVAL   =    4.000    mass and valenz                      
   RCORE  =    1.900    outmost cutoff radius                                   
   RWIGS  =    2.480; RWIGS  =    1.312    wigner-seitz radius (au A)           
   ENMAX  =  245.345; ENMIN  =  184.009 eV                                      
   ICORE  =        2    local potential                                         
   LCOR   =        T    correct aug charges                                     
   LPAW   =        T    paw PP                                                  
   EAUG   =  322.069                                                            
   DEXC   =    0.000                                                            
   RMAX   =    1.950    core radius for proj-oper                               
   RAUG   =    1.300    factor for augmentation sphere                          
   RDEP   =    1.993    radius for radial grids                                 
   RDEPT  =    1.837    core radius for aug-charge                              
                                                                                
   Atomic configuration                                                         
    6 entries                                                                   
     n  l   j            E        occ.                                          
     1  0  0.50     -1785.8828   2.0000                                         
     2  0  0.50      -139.4969   2.0000                                         
     2  1  1.50       -95.5546   6.0000                                         
     3  0  0.50       -10.8127   2.0000                                         
     3  1  0.50        -4.0811   2.0000                                         
     3  2  1.50        -4.0817   0.0000                                         
   Description                                                                  
     l       E           TYP  RCUT    TYP  RCUT                                 
     0    -10.8127223     23  1.900                                             
     0     -7.6451159     23  1.900                                             
     1     -4.0811372     23  1.900                                             
     1      2.4879257     23  1.900                                             
     2     -4.0817478      7  1.900                                             
  local pseudopotential read in
  partial core-charges read in
  partial kinetic energy density read in
  atomic valenz-charges read in
  non local Contribution for L=           0  read in
    real space projection operators read in
  non local Contribution for L=           0  read in
    real space projection operators read in
  non local Contribution for L=           1  read in
    real space projection operators read in
  non local Contribution for L=           1  read in
    real space projection operators read in
    PAW grid and wavefunctions read in
 
   number of l-projection  operators is LMAX  =           4
   number of lm-projection operators is LMMAX =           8
 
 Optimization of the real space projectors (new method)

 maximal supplied QI-value         = 19.84
 optimisation between [QCUT,QGAM] = [  7.94, 15.87] = [ 17.64, 70.56] Ry 
 Optimized for a Real-space Cutoff    1.57 Angstroem

   l    n(q)    QCUT    max X(q) W(low)/X(q) W(high)/X(q)  e(spline) 
   0      7     7.937   159.560    0.16E-03    0.38E-03    0.13E-06
   0      7     7.937   115.863    0.15E-03    0.37E-03    0.13E-06
   1      7     7.937    88.339    0.42E-03    0.67E-03    0.13E-06
   1      7     7.937    48.592    0.41E-03    0.65E-03    0.13E-06
  PAW_PBE Si 05Jan2001                  :
 energy of atom  1       EATOM= -103.0669
 kinetic energy error for atom=    0.0056 (will be added to EATOM!!)
 
 
 POSCAR: Si                                      
  positions in cartesian coordinates
  No initial velocities read in
 exchange correlation table for  LEXCH =        8
   RHO(1)=    0.500       N(1)  =     2000
   RHO(2)=  100.500       N(2)  =     4000
 


--------------------------------------------------------------------------------------------------------


 ion  position               nearest neighbor table
   1  0.010  0.194  0.042-  41 2.22  53 2.25  93 2.33  68 2.36  81 2.39   9 2.40  97 2.44  75 2.46
                            31 2.54  54 2.58   8 3.01
   2  0.212  0.716  0.524-  58 2.19  92 2.19  30 2.28  37 2.32  33 2.39  52 2.42  94 2.48  17 2.49
                            47 2.52  42 2.53  48 2.69  83 2.93
   3  0.574  0.820  0.878-  22 2.10  28 2.27  32 2.31  44 2.37  18 2.42  25 2.43  63 2.64  14 2.73
                            73 2.79  70 2.95  26 3.00  60 3.03  30 3.07
   4  0.202  0.401  0.322-  93 2.19  99 2.27  58 2.34 100 2.36  12 2.39  52 2.45   5 2.46  76 2.47
                            50 2.51  37 2.54  45 2.94  68 3.08
   5  0.203  0.189  0.436-  89 2.24  56 2.27  50 2.29  59 2.30  76 2.36  96 2.43   4 2.46  40 2.52
                            94 2.55  68 2.61  12 2.78  93 2.79  64 3.13
   6  0.628  0.329  0.234-  57 2.18  74 2.27  95 2.33  72 2.33  49 2.34  12 2.38   9 2.40   7 2.41
                            20 2.41  80 2.65  84 2.87  46 3.12   8 3.14
   7  0.558  0.435  0.433-  95 2.28  84 2.34  76 2.39   6 2.41  87 2.43  27 2.44  52 2.48  98 2.48
                            91 2.51  49 2.52  36 2.62  12 2.68  74 2.96
   8  0.790  0.379  0.977-   9 2.17  24 2.21  61 2.22  72 2.37  41 2.42  55 2.50  57 2.53  79 2.67
                            19 2.69  53 2.69  44 2.98   1 3.01  39 3.02  97 3.05   6 3.14
   9  0.854  0.315  0.170-   8 2.17  75 2.26  99 2.29  68 2.35   6 2.40   1 2.40  41 2.47  74 2.51
                            72 2.56  95 2.59  57 2.72
  10  0.945  0.524  0.453-  95 2.17  99 2.27  11 2.28  50 2.30  37 2.37  58 2.39  91 2.40  92 2.52
                            38 2.53  83 2.55  43 3.09
  11  0.863  0.652  0.290-  21 2.18  10 2.28  86 2.29  95 2.30  43 2.31  99 2.44  26 2.44  19 2.47
                            72 2.52  98 2.65  92 2.70  58 2.86  91 3.14
  12  0.403  0.288  0.280-  80 2.35  46 2.36   6 2.38  49 2.39   4 2.39  96 2.41  76 2.44  93 2.47
                            84 2.53   7 2.68   5 2.78  20 2.98 100 3.06  40 3.10
  13  0.761  0.019  0.427-  64 2.17  20 2.23  74 2.26  71 2.27  69 2.30  23 2.34  86 2.41  34 2.50
                            77 2.53  43 2.55  75 2.89  84 3.03
  14  0.641  0.945  0.105-  34 2.23  26 2.25  20 2.34  18 2.49  75 2.51  32 2.56  15 2.59  70 2.65
                            46 2.66  57 2.67   3 2.73  86 2.80  97 2.83  65 2.92
  15  0.873  0.871  0.034-  26 2.24  31 2.29  28 2.30  86 2.36  97 2.41  85 2.42  62 2.43  14 2.59
                            21 2.63  75 2.68  19 2.82  44 2.87
  16  0.210  0.828  0.084-  73 2.29  31 2.29  21 2.33  45 2.34  88 2.42  32 2.44  65 2.47  85 2.47
                            54 2.51  33 2.56  67 2.61  40 2.72
  17  0.080  0.855  0.676-  92 2.30  23 2.40  59 2.40   2 2.49  85 2.49  67 2.52  82 2.57  62 2.59
                            83 2.59  48 2.61  94 2.62  90 2.93  30 3.09
  18  0.607  0.055  0.890-  29 2.25  97 2.28  57 2.33   3 2.42  63 2.44  77 2.48  14 2.49  28 2.53
                            35 2.57  32 2.65  55 2.74  61 2.87  46 3.15
  19  0.910  0.599  0.060-  24 2.23  41 2.25  88 2.28  72 2.33  44 2.41  21 2.45  11 2.47  26 2.50
                            99 2.55  62 2.56   8 2.69  15 2.82
  20  0.623  0.096  0.276-  13 2.23  74 2.30  46 2.31  14 2.34  34 2.34  75 2.39   6 2.41  57 2.46
                            84 2.48  96 2.51  69 2.56  12 2.98
  21  0.029  0.751  0.200-  11 2.18  33 2.25  86 2.28  31 2.30  58 2.32  16 2.33  19 2.45  88 2.63
                            15 2.63  45 2.87  92 2.92  99 3.00
  22  0.512  0.637  0.810-   3 2.10  39 2.23  73 2.41  79 2.49  44 2.53  27 2.57  66 2.59  42 2.59
                            36 2.66  30 2.67  25 2.76  48 3.05  60 3.12
  23  0.867  0.926  0.607-  82 2.21  77 2.23  13 2.34  64 2.37  71 2.38  43 2.39  17 2.40  60 2.41
                            28 2.47  92 2.53  59 2.63  25 3.08
  24  0.918  0.509  0.860-   8 2.21  41 2.21  19 2.23  83 2.27  62 2.32  51 2.38  79 2.39  38 2.41
                            44 2.44  53 2.49  88 2.78
  25  0.581  0.837  0.641-  30 2.14  27 2.26  69 2.29  60 2.35  63 2.37  77 2.40   3 2.43  47 2.68
                            22 2.76  43 2.78  28 2.85  23 3.08
  26  0.720  0.740  0.121-  70 2.18  15 2.24  14 2.25  72 2.25  44 2.32  86 2.43  11 2.44  19 2.50
                            34 2.58  98 2.61   3 3.00  39 3.11
  27  0.534  0.637  0.559-  91 2.22  25 2.26  47 2.30  98 2.44   7 2.44  42 2.47  30 2.48  52 2.49
                            22 2.57  36 2.66  60 2.92  43 2.98  79 3.06
  28  0.780  0.888  0.829-  60 2.25   3 2.27  62 2.30  15 2.30  97 2.37  82 2.41  23 2.47  77 2.49
                            44 2.53  18 2.53  25 2.85  85 3.08
  29  0.405  0.143  0.895-  18 2.25  63 2.26  80 2.35  54 2.35  78 2.40  81 2.50  32 2.51  46 2.59
                            90 2.71  35 2.76  61 2.81  57 2.99  67 3.07  89 3.07
  30  0.376  0.796  0.653-  25 2.14  63 2.23   2 2.28  47 2.31  67 2.42  27 2.48  48 2.49  94 2.53
                            42 2.61  22 2.67   3 3.07  17 3.09
  31  0.044  0.969  0.141-  40 2.24  15 2.29  16 2.29  21 2.30  85 2.41  54 2.45  86 2.51   1 2.54
                            68 2.55  75 2.57  33 2.69  64 2.85
  32  0.414  0.922  0.002-  67 2.30   3 2.31  46 2.38  65 2.40  54 2.42  73 2.42  16 2.44  29 2.51
                            14 2.56  70 2.65  18 2.65  63 2.77
  33  0.177  0.846  0.332-  21 2.25  94 2.28  40 2.32  58 2.38   2 2.39  65 2.45  92 2.50  16 2.56
                            64 2.69  31 2.69  45 2.70  47 2.82
  34  0.609  0.869  0.307-  14 2.23  98 2.25  65 2.34  20 2.34  47 2.38  70 2.45  69 2.46  43 2.48
                            13 2.50  86 2.54  26 2.58  96 3.03
  35  0.573  0.208  0.694-  77 2.10  36 2.15  87 2.20  55 2.26  84 2.28  61 2.33  18 2.57  89 2.58
                            63 2.71  29 2.76  69 2.90  78 2.91
  36  0.511  0.409  0.684-  35 2.15  42 2.30  79 2.32  61 2.33  78 2.40  87 2.48  76 2.52   7 2.62
                            22 2.66  27 2.66  66 2.90  84 2.98  91 3.04
  37  0.156  0.497  0.547-  42 2.17   2 2.32  58 2.36  10 2.37  56 2.37  83 2.47  76 2.53   4 2.54
                            52 2.56  50 2.59  51 2.62  38 2.87  48 3.03
  38  0.923  0.387  0.659-  53 2.26  56 2.39  87 2.40  24 2.41  50 2.44  83 2.45  55 2.51  10 2.53
                            51 2.62  71 2.62  79 2.70  91 2.80  37 2.87
  39  0.536  0.530  0.999-  22 2.23  49 2.25  66 2.28  72 2.34  61 2.41  70 2.51  73 2.53  80 2.56
                            44 2.60  79 3.01   8 3.02  26 3.11
  40  0.225  0.046  0.236-  96 2.16  93 2.21  31 2.24  54 2.27  33 2.32  65 2.38  46 2.46   5 2.52
                            68 2.63  16 2.72  94 2.98  12 3.10
  41  0.020  0.411  0.023-  24 2.21   1 2.22  19 2.25  53 2.34  99 2.36   8 2.42 100 2.43  88 2.45
                            81 2.47   9 2.47  51 2.61  93 2.82
  42  0.332  0.544  0.656-  48 2.16  37 2.17  36 2.30  27 2.47  76 2.50  52 2.53   2 2.53  22 2.59
                            30 2.61  66 2.63  78 2.64  51 2.70
  43  0.772  0.772  0.459-  11 2.31  60 2.36  23 2.39  86 2.40  92 2.41  91 2.44  98 2.46  34 2.48
                            13 2.55  25 2.78  27 2.98  64 3.06  10 3.09
  44  0.737  0.658  0.910-  79 2.25  26 2.32  62 2.32   3 2.37  19 2.41  60 2.43  24 2.44  28 2.53
                            22 2.53  39 2.60  72 2.79  15 2.87   8 2.98
  45  0.290  0.647  0.200- 100 2.17  58 2.24  16 2.34  52 2.40  70 2.43  73 2.44  49 2.44  65 2.66
                            88 2.70  33 2.70  21 2.87   4 2.94  47 3.14
  46  0.440  0.105  0.144-  80 2.22  96 2.31  20 2.31  12 2.36  32 2.38  57 2.41  40 2.46  65 2.48
                            29 2.59  54 2.60  14 2.66  93 2.95   6 3.12  18 3.15
  47  0.429  0.791  0.433-  65 2.28  27 2.30  30 2.31  34 2.38  52 2.44   2 2.52  98 2.54  69 2.58
                            94 2.62  25 2.68  33 2.82  96 2.93  70 3.13  45 3.14
  48  0.216  0.666  0.783-  42 2.16  67 2.35  88 2.41  73 2.42  51 2.43  30 2.49  83 2.55  17 2.61
                            66 2.66   2 2.69  62 2.96  37 3.03  22 3.05
  49  0.477  0.498  0.209-  39 2.25   6 2.34  12 2.39  98 2.40  70 2.44  45 2.44  52 2.50  72 2.51
                             7 2.52  80 2.56 100 2.69
  50  0.015  0.309  0.452-  56 2.13  68 2.28   5 2.29  10 2.30  71 2.42  38 2.44   4 2.51  37 2.59
                            99 2.61  74 2.77  59 2.85  95 3.12
  51  0.132  0.444  0.797-  53 2.28  78 2.35  24 2.38  56 2.43  48 2.43  66 2.43  81 2.43  83 2.55
                            41 2.61  37 2.62  38 2.62  42 2.70  88 2.76
  52  0.355  0.565  0.410-  76 2.38  58 2.39  45 2.40   2 2.42  47 2.44   4 2.45   7 2.48  27 2.49
                            49 2.50  42 2.53  37 2.56  98 2.84
  53  0.990  0.277  0.839-   1 2.25  38 2.26  51 2.28  55 2.33  41 2.34  24 2.49  81 2.50  82 2.52
                            90 2.58  56 2.61   8 2.69  97 2.85
  54  0.225  0.063  0.014-  40 2.27  81 2.29  29 2.35  85 2.40  32 2.42  90 2.42  31 2.45  93 2.51
                            16 2.51  67 2.57   1 2.58  46 2.60
  55  0.774  0.234  0.781-  35 2.26  61 2.29  53 2.33  97 2.34  87 2.37  77 2.45   8 2.50  38 2.51
                            71 2.58  82 2.60  18 2.74  79 2.79
  56  0.129  0.280  0.624-  50 2.13  59 2.24   5 2.27  78 2.30  37 2.37  38 2.39  51 2.43  90 2.48
                            89 2.54  53 2.61  76 2.68  71 2.98
  57  0.638  0.203  0.061-   6 2.18  80 2.24  61 2.32  18 2.33  46 2.41  75 2.45  20 2.46  97 2.52
                             8 2.53  14 2.67   9 2.72  29 2.99
  58  0.134  0.618  0.351-   2 2.19  45 2.24  21 2.32  99 2.33   4 2.34  37 2.36  33 2.38  92 2.39
                            10 2.39  52 2.39  11 2.86
  59  0.079  0.071  0.582-  94 2.22  56 2.24  64 2.24  71 2.28  90 2.30   5 2.30  82 2.36  17 2.40
                            23 2.63  89 2.84  50 2.85
  60  0.776  0.723  0.684-  91 2.21  28 2.25  25 2.35  43 2.36  23 2.41  62 2.42  44 2.43  83 2.48
                            79 2.53  27 2.92   3 3.03  22 3.12  92 3.13
  61  0.601  0.336  0.881-   8 2.22  55 2.29  57 2.32  79 2.32  36 2.33  35 2.33  39 2.41  80 2.42
                            29 2.81  18 2.87  66 2.99
  62  0.943  0.734  0.852-  83 2.19  28 2.30  44 2.32  24 2.32  85 2.38  60 2.42  15 2.43  19 2.56
                            17 2.59  88 2.60  48 2.96
  63  0.434  0.987  0.740-  30 2.23  29 2.26  67 2.30  25 2.37  89 2.42  18 2.44   3 2.64  35 2.71
                            69 2.74  32 2.77  77 2.80  94 3.01  90 3.02
  64  0.971  0.990  0.409-  13 2.17  59 2.24  86 2.24  23 2.37  68 2.38  92 2.49  71 2.50  33 2.69
                            31 2.85  94 3.06  43 3.06  75 3.11   5 3.13
  65  0.393  0.884  0.233-  70 2.19  47 2.28  96 2.29  34 2.34  40 2.38  32 2.40  33 2.45  16 2.47
                            46 2.48  45 2.66  14 2.92
  66  0.343  0.473  0.904-  39 2.28 100 2.30  78 2.32  73 2.37  51 2.43  81 2.47  80 2.53  22 2.59
                            42 2.63  48 2.66  88 2.89  36 2.90  61 2.99
  67  0.261  0.885  0.841-  85 2.11  63 2.30  32 2.30  48 2.35  30 2.42  90 2.50  17 2.52  73 2.56
                            54 2.57  16 2.61  29 3.07
  68  0.007  0.176  0.273-  50 2.28  93 2.29  75 2.31   9 2.35   1 2.36  64 2.38  31 2.55   5 2.61
                            40 2.63  74 2.80  99 2.94   4 3.08
  69  0.547  0.005  0.497-  84 2.11  96 2.18  77 2.28  25 2.29  13 2.30  34 2.46  20 2.56  47 2.58
                            63 2.74  89 2.80  35 2.90  94 3.08
  70  0.508  0.726  0.143-  26 2.18  65 2.19  98 2.31  73 2.37  45 2.43  49 2.44  34 2.45  39 2.51
                            32 2.65  14 2.65   3 2.95  72 2.96  47 3.13
  71  0.873  0.154  0.562-  13 2.27  59 2.28  74 2.29  23 2.38  87 2.40  77 2.41  50 2.42  64 2.50
                            82 2.50  55 2.58  38 2.62  56 2.98
  72  0.713  0.521  0.145-  26 2.25  95 2.33   6 2.33  19 2.33  39 2.34   8 2.37  49 2.51  11 2.52
                             9 2.56  98 2.56  44 2.79  70 2.96
  73  0.352  0.694  0.974-  16 2.29  70 2.37  66 2.37  22 2.41  48 2.42  32 2.42  45 2.44  88 2.46
                            39 2.53  67 2.56   3 2.79 100 2.93
  74  0.763  0.236  0.385-  87 2.23  13 2.26   6 2.27  71 2.29  20 2.30  95 2.31  84 2.48   9 2.51
                            75 2.77  50 2.77  68 2.80   7 2.96
  75  0.827  0.095  0.162-  97 2.20   9 2.26  68 2.31  20 2.39  57 2.45   1 2.46  86 2.49  14 2.51
                            31 2.57  15 2.68  74 2.77  13 2.89  64 3.11
  76  0.352  0.352  0.505-  89 2.23   5 2.36  52 2.38   7 2.39  84 2.41  12 2.44   4 2.47  42 2.50
                            36 2.52  37 2.53  78 2.61  56 2.68
  77  0.692  0.043  0.663-  35 2.10  23 2.23  69 2.28  25 2.40  71 2.41  55 2.45  18 2.48  28 2.49
                            13 2.53  63 2.80  82 2.81  87 3.02  84 3.03
  78  0.312  0.306  0.754-  89 2.21  81 2.28  56 2.30  66 2.32  51 2.35  29 2.40  36 2.40  90 2.56
                            76 2.61  42 2.64  35 2.91
  79  0.706  0.498  0.761-  91 2.22  44 2.25  61 2.32  36 2.32  24 2.39  22 2.49  60 2.53  87 2.58
                             8 2.67  38 2.70  55 2.79  39 3.01  27 3.06
  80  0.443  0.304  0.055-  46 2.22  57 2.24  12 2.35  29 2.35  61 2.42  66 2.53  49 2.56  39 2.56
                            81 2.64   6 2.65 100 2.71  93 2.88
  81  0.208  0.278  0.950-  93 2.27  78 2.28  54 2.29   1 2.39  51 2.43  90 2.47  41 2.47  66 2.47
                           100 2.49  53 2.50  29 2.50  80 2.64
  82  0.945  0.045  0.770-  23 2.21  97 2.25  85 2.30  90 2.34  59 2.36  28 2.41  71 2.50  53 2.52
                            17 2.57  55 2.60  77 2.81
  83  0.994  0.616  0.681-  62 2.19  24 2.27  38 2.45  37 2.47  60 2.48  92 2.49  48 2.55  51 2.55
                            10 2.55  17 2.59   2 2.93  91 3.00
  84  0.538  0.210  0.473-  69 2.11  35 2.28   7 2.34  96 2.36  87 2.38  76 2.41  89 2.44  74 2.48
                            20 2.48  12 2.53   6 2.87  36 2.98  77 3.03  13 3.03
  85  0.069  0.921  0.911-  67 2.11  82 2.30  62 2.38  54 2.40  31 2.41  15 2.42  90 2.46  16 2.47
                            17 2.49  97 3.05  28 3.08
  86  0.853  0.874  0.264-  64 2.24  21 2.28  11 2.29  15 2.36  43 2.40  13 2.41  26 2.43  75 2.49
                            31 2.51  34 2.54  14 2.80  92 2.98
  87  0.712  0.325  0.577-  35 2.20  74 2.23  55 2.37  84 2.38  91 2.38  71 2.40  38 2.40   7 2.43
                            36 2.48  79 2.58  95 2.69  77 3.02
  88  0.123  0.626  0.997-  19 2.28 100 2.29  48 2.41  16 2.42  41 2.45  73 2.46  62 2.60  21 2.63
                            45 2.70  51 2.76  24 2.78  66 2.89
  89  0.344  0.156  0.601-  78 2.21  76 2.23   5 2.24  63 2.42  94 2.43  84 2.44  56 2.54  35 2.58
                            96 2.65  90 2.68  69 2.80  59 2.84  29 3.07
  90  0.166  0.104  0.787-  59 2.30  82 2.34  54 2.42  85 2.46  81 2.47  56 2.48  67 2.50  78 2.56
                            53 2.58  89 2.68  29 2.71  17 2.93  63 3.02
  91  0.735  0.556  0.553-  60 2.21  79 2.22  27 2.22  95 2.24  87 2.38  10 2.40  43 2.44   7 2.51
                            98 2.78  38 2.80  83 3.00  36 3.04  11 3.14
  92  0.006  0.761  0.485-   2 2.19  17 2.30  58 2.39  43 2.41  64 2.49  83 2.49  33 2.50  10 2.52
                            23 2.53  11 2.70  21 2.92  86 2.98  60 3.13
  93  0.191  0.250  0.170-   4 2.19  40 2.21  81 2.27  68 2.29   1 2.33 100 2.35  12 2.47  54 2.51
                             5 2.79  41 2.82  80 2.88  46 2.95  99 3.01
  94  0.250  0.956  0.512-  59 2.22  33 2.28  96 2.41  89 2.43   2 2.48  30 2.53   5 2.55  47 2.62
                            17 2.62  40 2.98  63 3.01  64 3.06  69 3.08
  95  0.766  0.461  0.358-  10 2.17  91 2.24   7 2.28  11 2.30  74 2.31   6 2.33  72 2.33  98 2.54
                             9 2.59  99 2.66  87 2.69  50 3.12
  96  0.394  0.067  0.362-  40 2.16  69 2.18  65 2.29  46 2.31  84 2.36  12 2.41  94 2.41   5 2.43
                            20 2.51  89 2.65  47 2.93  34 3.03
  97  0.821  0.084  0.947-  75 2.20  82 2.25  18 2.28  55 2.34  28 2.37  15 2.41   1 2.44  57 2.52
                            14 2.83  53 2.85   8 3.05  85 3.05
  98  0.607  0.650  0.332-  34 2.25  70 2.31  49 2.40  27 2.44  43 2.46   7 2.48  47 2.54  95 2.54
                            72 2.56  26 2.61  11 2.65  91 2.78  52 2.84
  99  0.002  0.463  0.248-   4 2.27  10 2.27   9 2.29  58 2.33  41 2.36  11 2.44  19 2.55  50 2.61
                            95 2.66 100 2.82  68 2.94  21 3.00  93 3.01
 100  0.238  0.465  0.103-  45 2.17  88 2.29  66 2.30  93 2.35   4 2.36  41 2.43  81 2.49  49 2.69
                            80 2.71  99 2.82  73 2.93  12 3.06
 

IMPORTANT INFORMATION: All symmetrisations will be switched off!
NOSYMM: (Re-)initialisation of all symmetry stuff for point group C_1.

 
 
 KPOINTS: simple                                  

Automatic generation of k-mesh.
Space group operators:
 irot       det(A)        alpha          n_x          n_y          n_z        tau_x        tau_y        tau_z
    1     1.000000     0.000000     1.000000     0.000000     0.000000     0.000000     0.000000     0.000000
 
 Subroutine IBZKPT returns following result:
 ===========================================
 
 Found      1 irreducible k-points:
 
 Following reciprocal coordinates:
            Coordinates               Weight
  0.000000  0.000000  0.000000      1.000000
 
 Following cartesian coordinates:
            Coordinates               Weight
  0.000000  0.000000  0.000000      1.000000
 


--------------------------------------------------------------------------------------------------------




 Dimension of arrays:
   k-points           NKPTS =      1   k-points in BZ     NKDIM =      1   number of bands    NBANDS=    304
   number of dos      NEDOS =    301   number of ions     NIONS =    100
   non local maximal  LDIM  =      4   non local SUM 2l+1 LMDIM =      8
   total plane-waves  NPLWV =  64000
   max r-space proj   IRMAX =   1017   max aug-charges    IRDMAX=   2209
   dimension x,y,z NGX =    40 NGY =   40 NGZ =   40
   dimension x,y,z NGXF=    80 NGYF=   80 NGZF=   80
   support grid    NGXF=    80 NGYF=   80 NGZF=   80
   ions per type =             100
   NGX,Y,Z   is equivalent  to a cutoff of   6.51,  6.51,  6.51 a.u.
   NGXF,Y,Z  is equivalent  to a cutoff of  13.02, 13.02, 13.02 a.u.

 SYSTEM =  unknown system                          
 POSCAR =  Si                                      

 Startparameter for this run:
   NWRITE =      2    write-flag & timer
   PREC   = normal    normal or accurate (medium, high low for compatibility)
   ISTART =      0    job   : 0-new  1-cont  2-samecut
   ICHARG =      2    charge: 1-file 2-atom 10-const
   ISPIN  =      2    spin polarized calculation?
   LNONCOLLINEAR =      F non collinear calculations
   LSORBIT =      F    spin-orbit coupling
   INIWAV =      1    electr: 0-lowe 1-rand  2-diag
   LASPH  =      F    aspherical Exc in radial PAW
   METAGGA=      F    non-selfconsistent MetaGGA calc.

 Electronic Relaxation 1
   ENCUT  =  245.3 eV  18.03 Ry    4.25 a.u.  13.04 13.04 13.04*2*pi/ulx,y,z
   ENINI  =  245.3     initial cutoff
   ENAUG  =  322.1 eV  augmentation charge cutoff
   NELM   =     60;   NELMIN=  4; NELMDL=-12     # of ELM steps 
   EDIFF  = 0.1E-04   stopping-criterion for ELM
   LREAL  =      T    real-space projection
   NLSPLINE    = F    spline interpolate recip. space projectors
   LCOMPAT=      F    compatible to vasp.4.4
   GGA_COMPAT  = T    GGA compatible to vasp.4.4-vasp.4.6
   LMAXPAW     = -100 max onsite density
   LMAXMIX     =    2 max onsite mixed and CHGCAR
   VOSKOWN=      0    Vosko Wilk Nusair interpolation
   ROPT   =   -0.00050
 Ionic relaxation
   EDIFFG = 0.1E-03   stopping-criterion for IOM
   NSW    =      0    number of steps for IOM
   NBLOCK =      1;   KBLOCK =      1    inner block; outer block 
   IBRION =     -1    ionic relax: 0-MD 1-quasi-New 2-CG
   NFREE  =      0    steps in history (QN), initial steepest desc. (CG)
   ISIF   =      2    stress and relaxation
   IWAVPR =     10    prediction:  0-non 1-charg 2-wave 3-comb
   ISYM   =      0    0-nonsym 1-usesym 2-fastsym
   LCORR  =      T    Harris-Foulkes like correction to forces

   POTIM  = 0.5000    time-step for ionic-motion
   TEIN   =    0.0    initial temperature
   TEBEG  =    0.0;   TEEND  =   0.0 temperature during run
   SMASS  =  -3.00    Nose mass-parameter (am)
   estimated Nose-frequenzy (Omega)   =  0.10E-29 period in steps =****** mass=  -0.238E-26a.u.
   SCALEE = 1.0000    scale energy and forces
   NPACO  =    256;   APACO  = 16.0  distance and # of slots for P.C.
   PSTRESS=    0.0 pullay stress

  Mass of Ions in am
   POMASS =  28.09
  Ionic Valenz
   ZVAL   =   4.00
  Atomic Wigner-Seitz radii
   RWIGS  =  -1.00
  virtual crystal weights 
   VCA    =   1.00
   NELECT =     400.0000    total number of electrons
   NUPDOWN=      -1.0000    fix difference up-down

 DOS related values:
   EMIN   =  10.00;   EMAX   =-10.00  energy-range for DOS
   EFERMI =   0.00
   ISMEAR =     0;   SIGMA  =   0.05  broadening in eV -4-tet -1-fermi 0-gaus

 Electronic relaxation 2 (details)
   IALGO  =     48    algorithm
   LDIAG  =      T    sub-space diagonalisation (order eigenvalues)
   LSUBROT=      F    optimize rotation matrix (better conditioning)
   TURBO    =      0    0=normal 1=particle mesh
   IRESTART =      0    0=no restart 2=restart with 2 vectors
   NREBOOT  =      0    no. of reboots
   NMIN     =      0    reboot dimension
   EREF     =   0.00    reference energy to select bands
   IMIX   =      4    mixing-type and parameters
     AMIX     =   0.40;   BMIX     =  1.00
     AMIX_MAG =   1.60;   BMIX_MAG =  1.00
     AMIN     =   0.10
     WC   =   100.;   INIMIX=   1;  MIXPRE=   1;  MAXMIX= -45

 Intra band minimization:
   WEIMIN = 0.0000     energy-eigenvalue tresh-hold
   EBREAK =  0.82E-08  absolut break condition
   DEPER  =   0.30     relativ break condition  

   TIME   =   0.40     timestep for ELM

  volume/ion in A,a.u.               =      10.65        71.86
  Fermi-wavevector in a.u.,A,eV,Ry     =   1.181242  2.232223 18.984649  1.395332
  Thomas-Fermi vector in A             =   2.317519
 
 Write flags
   LWAVE        =      F    write WAVECAR
   LDOWNSAMPLE  =      F    k-point downsampling of WAVECAR
   LCHARG       =      F    write CHGCAR
   LVTOT        =      F    write LOCPOT, total local potential
   LVHAR        =      F    write LOCPOT, Hartree potential only
   LELF         =      F    write electronic localiz. function (ELF)
   LORBIT       =      0    0 simple, 1 ext, 2 COOP (PROOUT), +10 PAW based schemes


 Dipole corrections
   LMONO  =      F    monopole corrections only (constant potential shift)
   LDIPOL =      F    correct potential (dipole corrections)
   IDIPOL =      0    1-x, 2-y, 3-z, 4-all directions 
   EPSILON=  1.0000000 bulk dielectric constant

 Exchange correlation treatment:
   GGA     =    --    GGA type
   LEXCH   =     8    internal setting for exchange type
   VOSKOWN=      0    Vosko Wilk Nusair interpolation
   LHFCALC =     F    Hartree Fock is set to
   LHFONE  =     F    Hartree Fock one center treatment
   AEXX    =    0.0000 exact exchange contribution

 Linear response parameters
   LEPSILON=     F    determine dielectric tensor
   LRPA    =     F    only Hartree local field effects (RPA)
   LNABLA  =     F    use nabla operator in PAW spheres
   LVEL    =     F    velocity operator in full k-point grid
   LINTERFAST=   F  fast interpolation
   KINTER  =     0    interpolate to denser k-point grid
   CSHIFT  =0.1000    complex shift for real part using Kramers Kronig
   OMEGAMAX=  -1.0    maximum frequency
   DEG_THRESHOLD= 0.2000000E-02 threshold for treating states as degnerate
   RTIME   =   -0.100 relaxation time in fs
  (WPLASMAI=    0.000 imaginary part of plasma frequency in eV, 0.658/RTIME)
   DFIELD  = 0.0000000 0.0000000 0.0000000 field for delta impulse in time
 
 Orbital magnetization related:
   ORBITALMAG=     F  switch on orbital magnetization
   LCHIMAG   =     F  perturbation theory with respect to B field
   DQ        =  0.001000  dq finite difference perturbation B field
   LLRAUG    =     F  two centre corrections for induced B field



--------------------------------------------------------------------------------------------------------


 Static calculation
 charge density and potential will be updated during run
 spin polarized calculation
 RMM-DIIS sequential band-by-band
 perform sub-space diagonalisation
    before iterative eigenvector-optimisation
 modified Broyden-mixing scheme, WC =      100.0
 initial mixing is a Kerker type mixing with AMIX =  0.4000 and BMIX =      1.0000
 Hartree-type preconditioning will be used
 using additional bands          104
 real space projection scheme for non local part
 use partial core corrections
 calculate Harris-corrections to forces 
   (improved forces if not selfconsistent)
 use gradient corrections 
 use of overlap-Matrix (Vanderbilt PP)
 Gauss-broadening in eV      SIGMA  =   0.05


--------------------------------------------------------------------------------------------------------


  energy-cutoff  :      245.34
  volume of cell :     1064.80
      direct lattice vectors                 reciprocal lattice vectors
    10.211495000  0.000000000  0.000000000     0.097928854  0.000000000  0.000000000
     0.000000000 10.211495000  0.000000000     0.000000000  0.097928854  0.000000000
     0.000000000  0.000000000 10.211495000     0.000000000  0.000000000  0.097928854

  length of vectors
    10.211495000 10.211495000 10.211495000     0.097928854  0.097928854  0.097928854


 
 k-points in units of 2pi/SCALE and weight: simple                                  
   0.00000000  0.00000000  0.00000000       1.000
 
 k-points in reciprocal lattice and weights: simple                                  
   0.00000000  0.00000000  0.00000000       1.000
 
 position of ions in fractional coordinates (direct lattice) 
   0.01036860  0.19426000  0.04229450
   0.21195800  0.71624300  0.52440900
   0.57437800  0.82037500  0.87819800
   0.20200200  0.40116200  0.32232300
   0.20301700  0.18891900  0.43594300
   0.62825300  0.32854300  0.23435300
   0.55817800  0.43497900  0.43315500
   0.79026200  0.37903700  0.97749500
   0.85367400  0.31482400  0.17012500
   0.94523800  0.52361100  0.45339700
   0.86317400  0.65235400  0.29043900
   0.40287300  0.28831200  0.28046100
   0.76105300  0.01900010  0.42673500
   0.64102300  0.94506000  0.10524600
   0.87277400  0.87067200  0.03365410
   0.21014900  0.82816400  0.08448220
   0.08019640  0.85462300  0.67562100
   0.60722700  0.05513260  0.89011400
   0.90998500  0.59853600  0.05956980
   0.62293000  0.09594580  0.27611600
   0.02906940  0.75141600  0.20040000
   0.51164200  0.63672100  0.80993800
   0.86731600  0.92578500  0.60699100
   0.91753700  0.50874100  0.86039200
   0.58067700  0.83670100  0.64123500
   0.71956400  0.73973500  0.12054600
   0.53368800  0.63667100  0.55888600
   0.78028900  0.88803700  0.82905900
   0.40517500  0.14257800  0.89514700
   0.37600500  0.79571100  0.65321100
   0.04387420  0.96850400  0.14067600
   0.41417600  0.92173000  0.00182856
   0.17732900  0.84611200  0.33229900
   0.60882300  0.86922400  0.30719800
   0.57291500  0.20807300  0.69352500
   0.51132300  0.40900300  0.68409900
   0.15599400  0.49732400  0.54683800
   0.92341700  0.38698800  0.65871200
   0.53620900  0.52983700  0.99874500
   0.22526600  0.04645580  0.23579300
   0.02041030  0.41091500  0.02344850
   0.33233500  0.54353800  0.65588800
   0.77169300  0.77203600  0.45876800
   0.73726900  0.65795600  0.90976600
   0.28992300  0.64691400  0.19972600
   0.43972800  0.10518100  0.14404100
   0.42874600  0.79086500  0.43280700
   0.21578200  0.66599100  0.78300600
   0.47660900  0.49829200  0.20860700
   0.01485200  0.30939600  0.45172500
   0.13245200  0.44358800  0.79651800
   0.35457200  0.56477800  0.41034400
   0.99027000  0.27738800  0.83946300
   0.22464100  0.06328100  0.01377470
   0.77402400  0.23420300  0.78117000
   0.12868400  0.28006700  0.62410000
   0.63788700  0.20311600  0.06138910
   0.13398800  0.61763900  0.35091900
   0.07907530  0.07086530  0.58234100
   0.77591000  0.72276900  0.68411200
   0.60070800  0.33606700  0.88058000
   0.94311000  0.73429000  0.85189200
   0.43394400  0.98729400  0.73965300
   0.97092200  0.99006700  0.40920800
   0.39256300  0.88365700  0.23299300
   0.34270400  0.47312000  0.90386600
   0.26077100  0.88469200  0.84054800
   0.00651722  0.17642300  0.27304500
   0.54715300  0.00463347  0.49680700
   0.50764400  0.72589400  0.14341900
   0.87293400  0.15449000  0.56227700
   0.71282200  0.52075200  0.14482600
   0.35238900  0.69409900  0.97438900
   0.76276600  0.23576500  0.38455000
   0.82708200  0.09492280  0.16213900
   0.35180700  0.35187900  0.50534900
   0.69167400  0.04258020  0.66309300
   0.31160700  0.30561500  0.75375000
   0.70625100  0.49810100  0.76062100
   0.44305200  0.30371500  0.05487570
   0.20812900  0.27766500  0.95008000
   0.94519500  0.04542660  0.76955800
   0.99352100  0.61583900  0.68082100
   0.53817700  0.21005600  0.47287000
   0.06936010  0.92071500  0.91052400
   0.85342500  0.87446700  0.26403700
   0.71197900  0.32484400  0.57689800
   0.12285500  0.62566200  0.99651200
   0.34359400  0.15615400  0.60080800
   0.16607800  0.10426600  0.78735800
   0.73534400  0.55568100  0.55335100
   0.00612933  0.76117100  0.48499200
   0.19116800  0.25003400  0.16986800
   0.24972900  0.95605900  0.51225400
   0.76649900  0.46077900  0.35802900
   0.39390200  0.06708810  0.36191100
   0.82137400  0.08383220  0.94739900
   0.60718900  0.65004600  0.33225600
   0.00242337  0.46304100  0.24768500
   0.23765700  0.46524100  0.10334400
 
 position of ions in cartesian coordinates  (Angst):
   0.10587891  1.98368502  0.43189008
   2.16440806  7.31391181  5.35499988
   5.86525808  8.37725521  8.96771449
   2.06274241  4.09646376  3.29139970
   2.07310708  1.92914542  4.45162976
   6.41540237  3.35491520  2.39309449
   5.69983186  4.44178588  4.42316012
   8.06975646  3.87053443  9.98168531
   8.71728778  3.21482370  1.73723059
   9.65229311  5.34685111  4.62986120
   8.81429699  6.66150961  2.96581640
   4.11393563  2.94409655  2.86392610
   7.77148890  0.19401943  4.35760232
   6.54580316  9.65047546  1.07471900
   8.91232734  8.89086277  0.34365867
   2.14593546  8.45679255  0.86268956
   0.81892514  8.72697849  6.89910046
   6.20069547  0.56298627  9.08939466
   9.29230728  6.11194737  0.60829671
   6.36104658  0.97975006  2.81955715
   0.29684203  7.67308073  2.04638360
   5.22462972  6.50187331  8.27067784
   8.85659300  9.45364890  6.19828556
   9.36942449  5.19500618  8.78588861
   5.92958028  8.54396808  6.54796800
   7.34782419  7.55380025  1.23095488
   5.44975234  6.50136273  5.70706159
   7.96791722  9.06818539  8.46593183
   4.13744249  1.45593453  9.14078911
   3.83957318  8.12539890  6.67026086
   0.44802117  9.88987375  1.43651227
   4.22935615  9.41224129  0.01867233
   1.81079420  8.64006846  3.39326958
   6.21699302  8.87607653  3.13695084
   5.85031866  2.12473640  7.08192707
   5.22137226  4.17653209  6.98567352
   1.59293195  5.07842154  5.58403350
   9.42946808  3.95172603  6.72643429
   5.47549552  5.41042788 10.19867957
   2.30030263  0.47438317  2.40779904
   0.20841968  4.19605647  0.23944424
   3.39363719  5.55033557  6.69759703
   7.88013921  7.88364175  4.68470714
   7.52861871  6.71871440  9.29007096
   2.96054726  6.60595908  2.03950105
   4.49028027  1.07405526  1.47087395
   4.37813764  8.07591399  4.41960652
   2.20345681  6.80076377  7.99566185
   4.86689042  5.08830627  2.13018934
   0.15166112  3.15939571  4.61278758
   1.35253294  4.52969664  8.13363957
   3.62071021  5.76722772  4.19022570
  10.11213715  2.83254618  8.57217223
   2.29392045  0.64619362  0.14066028
   7.90394221  2.39156276  7.97691355
   1.31405602  2.85990277  6.37299403
   6.51377991  2.07411802  0.62687449
   1.36821779  6.30701756  3.58340761
   0.80747703  0.72364066  5.94657221
   7.92320109  7.38055203  6.98580627
   6.13412674  3.43174649  8.99203827
   9.63056305  7.49819866  8.69909090
   4.43121699 10.08174774  7.55296291
   9.91456515 10.11006422  4.17862545
   4.00865511  9.02345904  2.37920685
   3.49952018  4.83126251  9.22982314
   2.66286176  9.03402793  8.58325170
   0.06655056  1.80154258  2.78819765
   5.58725012  0.04731466  5.07314220
   5.18380417  7.41246295  1.46452240
   8.91396118  1.57757386  5.74168877
   7.27897829  5.31765644  1.47888997
   3.59841851  7.08778847  9.94996840
   7.78898120  2.40751312  3.92683040
   8.44574371  0.96930370  1.65568159
   3.59247542  3.59321065  5.16036879
   7.06302559  0.43480750  6.77117085
   3.18197332  3.12078604  7.69691436
   7.21187856  5.08635587  7.76707754
   4.52422328  3.10138420  0.56036294
   2.12530824  2.83537476  9.70173717
   9.65185402  0.46387350  7.85833767
  10.14533472  6.28863687  6.95220024
   5.49559174  2.14498579  4.82870964
   0.70827031  9.40187662  9.29781127
   8.71474512  8.92961540  2.69621251
   7.27037000  3.31714288  5.89099104
   1.25453322  6.38894438 10.17587731
   3.50860841  1.59456579  6.13514789
   1.69590467  1.06471174  8.04010228
   7.50896158  5.67433375  5.65054097
   0.06258962  7.77269386  4.95249338
   1.95211108  2.55322094  1.73460623
   2.55010643  9.76279170  5.23087916
   7.82710071  4.70524245  3.65601134
   4.02232830  0.68506980  3.69565237
   8.38745649  0.85605209  9.67436015
   6.20030744  6.63794148  3.39283048
   0.02474623  4.72834086  2.52923414
   2.42683327  4.75080615  1.05529674
 


--------------------------------------------------------------------------------------------------------


 k-point  1 :   0.0000 0.0000 0.0000  plane waves:    9315

 maximum and minimum number of plane-waves per node :      9315     9315

 maximum number of plane-waves:      9315
 maximum index in each direction: 
   IXMAX=   13   IYMAX=   13   IZMAX=   13
   IXMIN=  -13   IYMIN=  -13   IZMIN=  -13


 serial   3D FFT for wavefunctions
 parallel 3D FFT for charge:
    minimum data exchange during FFTs selected (reduces bandwidth)


 total amount of memory used by VASP MPI-rank0    53953. kBytes
=======================================================================

   base      :      30000. kBytes
   nonlr-proj:       8285. kBytes
   fftplans  :       1377. kBytes
   grid      :       7520. kBytes
   one-center:        614. kBytes
   wavefun   :       6157. kBytes
 
     INWAV:  cpu time    0.0000: real time    0.0002
 Broyden mixing: mesh for mixing (old mesh)
   NGX = 27   NGY = 27   NGZ = 27
  (NGX  = 80   NGY  = 80   NGZ  = 80)
  gives a total of  19683 points

 initial charge density was supplied:
 charge density of overlapping atoms calculated
 number of electron     400.0000000 magnetization     100.0000000
 keeping initial charge density in first step


--------------------------------------------------------------------------------------------------------


 Maximum index for non-local projection operator          954
 Maximum index for augmentation-charges          192 (set IRDMAX)


--------------------------------------------------------------------------------------------------------


 First call to EWALD:  gamma=   0.174
 Maximum number of real-space cells 3x 3x 3
 Maximum number of reciprocal cells 3x 3x 3

    FEWALD:  cpu time    0.0076: real time    0.0076


--------------------------------------- Iteration      1(   1)  ---------------------------------------


    POTLOK:  cpu time    0.0554: real time    0.1454
    SETDIJ:  cpu time    0.0354: real time    0.0355
    EDDIAG:  cpu time    0.3470: real time    0.3490
  RMM-DIIS:  cpu time    0.4349: real time    0.4401
    ORTHCH:  cpu time    0.0974: real time    0.0981
       DOS:  cpu time    0.0004: real time    0.0004
    --------------------------------------------
      LOOP:  cpu time    0.9705: real time    1.0685

 eigenvalue-minimisations  :   608
 total energy-change (2. order) : 0.1377317E+04  (-0.7467068E+04)
 number of electron     400.0000000 magnetization     100.0000000
 augmentation part      400.0000000 magnetization     100.0000000

 Free energy of the ion-electron system (eV)
  ---------------------------------------------------
  alpha Z        PSCENC =       316.14514549
  Ewald energy   TEWEN  =    -14950.96582243
  -Hartree energ DENC   =       -80.57855695
  -exchange      EXHF   =         0.00000000
  -V(xc)+E(xc)   XCENC  =      -777.71521839
  PAW double counting   =      8803.41707833    -7043.47671478
  entropy T*S    EENTRO =        -0.01073599
  eigenvalues    EBANDS =      4804.37368917
  atomic energy  EATOM  =     10306.12861560
  Solvation  Ediel_sol  =         0.00000000
  ---------------------------------------------------
  free energy    TOTEN  =      1377.31748004 eV

  energy without entropy =     1377.32821603  energy(sigma->0) =     1377.32284803


--------------------------------------------------------------------------------------------------------




--------------------------------------- Iteration      1(   2)  ---------------------------------------


    EDDIAG:  cpu time    0.3403: real time    0.3425
  RMM-DIIS:  cpu time    0.4450: real time    0.4500
    ORTHCH:  cpu time    0.0975: real time    0.0981
       DOS:  cpu time    0.0003: real time    0.0003
    --------------------------------------------
      LOOP:  cpu time    0.8831: real time    0.8909

 eigenvalue-minimisations  :   608
 total energy-change (2. order) :-0.1372572E+04  (-0.1315952E+04)
 number of electron     400.0000000 magnetization     100.0000000
 augmentation part      400.0000000 magnetization     100.0000000

 Free energy of the ion-electron system (eV)
  ---------------------------------------------------
  alpha Z        PSCENC =       316.14514549
  Ewald energy   TEWEN  =    -14950.96582243
  -Hartree energ DENC   =       -80.57855695
  -exchange      EXHF   =         0.00000000
  -V(xc)+E(xc)   XCENC  =      -777.71521839
  PAW double counting   =      8803.41707833    -7043.47671478
  entropy T*S    EENTRO =        -0.04718416
  eigenvalues    EBANDS =      3431.83818803
  atomic energy  EATOM  =     10306.12861560
  Solvation  Ediel_sol  =         0.00000000
  ---------------------------------------------------
  free energy    TOTEN  =         4.74553073 eV

  energy without entropy =        4.79271489  energy(sigma->0) =        4.76912281


--------------------------------------------------------------------------------------------------------




--------------------------------------- Iteration      1(   3)  ---------------------------------------


    EDDIAG:  cpu time    0.3376: real time    0.3398
  RMM-DIIS:  cpu time    0.4406: real time    0.4456
    ORTHCH:  cpu time    0.0976: real time    0.0982
       DOS:  cpu time    0.0003: real time    0.0003
    --------------------------------------------
      LOOP:  cpu time    0.8761: real time    0.8839

 eigenvalue-minimisations  :   608
 total energy-change (2. order) :-0.2876093E+03  (-0.2795509E+03)
 number of electron     400.0000000 magnetization     100.0000000
 augmentation part      400.0000000 magnetization     100.0000000

 Free energy of the ion-electron system (eV)
  ---------------------------------------------------
  alpha Z        PSCENC =       316.14514549
  Ewald energy   TEWEN  =    -14950.96582243
  -Hartree energ DENC   =       -80.57855695
  -exchange      EXHF   =         0.00000000
  -V(xc)+E(xc)   XCENC  =      -777.71521839
  PAW double counting   =      8803.41707833    -7043.47671478
  entropy T*S    EENTRO =        -0.05260677
  eigenvalues    EBANDS =      3144.23430708
  atomic energy  EATOM  =     10306.12861560
  Solvation  Ediel_sol  =         0.00000000
  ---------------------------------------------------
  free energy    TOTEN  =      -282.86377283 eV

  energy without entropy =     -282.81116605  energy(sigma->0) =     -282.83746944


--------------------------------------------------------------------------------------------------------




--------------------------------------- Iteration      1(   4)  ---------------------------------------


    EDDIAG:  cpu time    0.3372: real time    0.3394
  RMM-DIIS:  cpu time    0.4380: real time    0.4430
    ORTHCH:  cpu time    0.0976: real time    0.0982
       DOS:  cpu time    0.0003: real time    0.0003
    --------------------------------------------
      LOOP:  cpu time    0.8731: real time    0.8809

 eigenvalue-minimisations  :   608
 total energy-change (2. order) :-0.7830762E+02  (-0.6629313E+02)
 number of electron     400.0000000 magnetization     100.0000000
 augmentation part      400.0000000 magnetization     100.0000000

 Free energy of the ion-electron system (eV)
  ---------------------------------------------------
  alpha Z        PSCENC =       316.14514549
  Ewald energy   TEWEN  =    -14950.96582243
  -Hartree energ DENC   =       -80.57855695
  -exchange      EXHF   =         0.00000000
  -V(xc)+E(xc)   XCENC  =      -777.71521839
  PAW double counting   =      8803.41707833    -7043.47671478
  entropy T*S    EENTRO =        -0.05157967
  eigenvalues    EBANDS =      3065.92565807
  atomic energy  EATOM  =     10306.12861560
  Solvation  Ediel_sol  =         0.00000000
  ---------------------------------------------------
  free energy    TOTEN  =      -361.17139473 eV

  energy without entropy =     -361.11981506  energy(sigma->0) =     -361.14560490


--------------------------------------------------------------------------------------------------------




--------------------------------------- Iteration      1(   5)  ---------------------------------------


    EDDIAG:  cpu time    0.3377: real time    0.3398
  RMM-DIIS:  cpu time    0.4356: real time    0.4406
    ORTHCH:  cpu time    0.0972: real time    0.0979
       DOS:  cpu time    0.0003: real time    0.0003
    --------------------------------------------
      LOOP:  cpu time    0.8709: real time    0.8786

 eigenvalue-minimisations  :   608
 total energy-change (2. order) :-0.2523428E+02  (-0.2043018E+02)
 number of electron     400.0000000 magnetization     100.0000000
 augmentation part      400.0000000 magnetization     100.0000000

 Free energy of the ion-electron system (eV)
  ---------------------------------------------------
  alpha Z        PSCENC =       316.14514549
  Ewald energy   TEWEN  =    -14950.96582243
  -Hartree energ DENC   =       -80.57855695
  -exchange      EXHF   =         0.00000000
  -V(xc)+E(xc)   XCENC  =      -777.71521839
  PAW double counting   =      8803.41707833    -7043.47671478
  entropy T*S    EENTRO =        -0.04729702
  eigenvalues    EBANDS =      3040.68709262
  atomic energy  EATOM  =     10306.12861560
  Solvation  Ediel_sol  =         0.00000000
  ---------------------------------------------------
  free energy    TOTEN  =      -386.40567754 eV

  energy without entropy =     -386.35838052  energy(sigma->0) =     -386.38202903


--------------------------------------------------------------------------------------------------------




--------------------------------------- Iteration      1(   6)  ---------------------------------------


    EDDIAG:  cpu time    0.3383: real time    0.3404
  RMM-DIIS:  cpu time    0.4421: real time    0.4472
    ORTHCH:  cpu time    0.0974: real time    0.0980
       DOS:  cpu time    0.0003: real time    0.0003
    --------------------------------------------
      LOOP:  cpu time    0.8782: real time    0.8859

 eigenvalue-minimisations  :   608
 total energy-change (2. order) :-0.9322493E+01  (-0.7120774E+01)
 number of electron     400.0000000 magnetization     100.0000000
 augmentation part      400.0000000 magnetization     100.0000000

 Free energy of the ion-electron system (eV)
  ---------------------------------------------------
  alpha Z        PSCENC =       316.14514549
  Ewald energy   TEWEN  =    -14950.96582243
  -Hartree energ DENC   =       -80.57855695
  -exchange      EXHF   =         0.00000000
  -V(xc)+E(xc)   XCENC  =      -777.71521839
  PAW double counting   =      8803.41707833    -7043.47671478
  entropy T*S    EENTRO =        -0.04622428
  eigenvalues    EBANDS =      3031.36352680
  atomic energy  EATOM  =     10306.12861560
  Solvation  Ediel_sol  =         0.00000000
  ---------------------------------------------------
  free energy    TOTEN  =      -395.72817062 eV

  energy without entropy =     -395.68194634  energy(sigma->0) =     -395.70505848


--------------------------------------------------------------------------------------------------------




--------------------------------------- Iteration      1(   7)  ---------------------------------------


    EDDIAG:  cpu time    0.3376: real time    0.3395
  RMM-DIIS:  cpu time    0.4390: real time    0.4442
    ORTHCH:  cpu time    0.0974: real time    0.0980
       DOS:  cpu time    0.0003: real time    0.0003
    --------------------------------------------
      LOOP:  cpu time    0.8743: real time    0.8821

 eigenvalue-minimisations  :   608
 total energy-change (2. order) :-0.3424071E+01  (-0.2812886E+01)
 number of electron     400.0000000 magnetization     100.0000000
 augmentation part      400.0000000 magnetization     100.0000000

 Free energy of the ion-electron system (eV)
  ---------------------------------------------------
  alpha Z        PSCENC =       316.14514549
  Ewald energy   TEWEN  =    -14950.96582243
  -Hartree energ DENC   =       -80.57855695
  -exchange      EXHF   =         0.00000000
  -V(xc)+E(xc)   XCENC  =      -777.71521839
  PAW double counting   =      8803.41707833    -7043.47671478
  entropy T*S    EENTRO =        -0.05212402
  eigenvalues    EBANDS =      3027.94535578
  atomic energy  EATOM  =     10306.12861560
  Solvation  Ediel_sol  =         0.00000000
  ---------------------------------------------------
  free energy    TOTEN  =      -399.15224137 eV

  energy without entropy =     -399.10011735  energy(sigma->0) =     -399.12617936


--------------------------------------------------------------------------------------------------------




--------------------------------------- Iteration      1(   8)  ---------------------------------------


    EDDIAG:  cpu time    0.3371: real time    0.3392
  RMM-DIIS:  cpu time    0.4468: real time    0.4521
    ORTHCH:  cpu time    0.0974: real time    0.0980
       DOS:  cpu time    0.0003: real time    0.0003
    --------------------------------------------
      LOOP:  cpu time    0.8816: real time    0.8896

 eigenvalue-minimisations  :   608
 total energy-change (2. order) :-0.1418124E+01  (-0.1150373E+01)
 number of electron     400.0000000 magnetization     100.0000000
 augmentation part      400.0000000 magnetization     100.0000000

 Free energy of the ion-electron system (eV)
  ---------------------------------------------------
  alpha Z        PSCENC =       316.14514549
  Ewald energy   TEWEN  =    -14950.96582243
  -Hartree energ DENC   =       -80.57855695
  -exchange      EXHF   =         0.00000000
  -V(xc)+E(xc)   XCENC  =      -777.71521839
  PAW double counting   =      8803.41707833    -7043.47671478
  entropy T*S    EENTRO =        -0.05469236
  eigenvalues    EBANDS =      3026.52980020
  atomic energy  EATOM  =     10306.12861560
  Solvation  Ediel_sol  =         0.00000000
  ---------------------------------------------------
  free energy    TOTEN  =      -400.57036529 eV

  energy without entropy =     -400.51567294  energy(sigma->0) =     -400.54301912


--------------------------------------------------------------------------------------------------------




--------------------------------------- Iteration      1(   9)  ---------------------------------------


    EDDIAG:  cpu time    0.3374: real time    0.3395
  RMM-DIIS:  cpu time    0.9656: real time    0.9777
    ORTHCH:  cpu time    0.0981: real time    0.0986
       DOS:  cpu time    0.0003: real time    0.0003
    --------------------------------------------
      LOOP:  cpu time    1.4015: real time    1.4161

 eigenvalue-minimisations  :  1495
 total energy-change (2. order) :-0.8478269E+00  (-0.7747405E+00)
 number of electron     400.0000000 magnetization     100.0000000
 augmentation part      400.0000000 magnetization     100.0000000

 Free energy of the ion-electron system (eV)
  ---------------------------------------------------
  alpha Z        PSCENC =       316.14514549
  Ewald energy   TEWEN  =    -14950.96582243
  -Hartree energ DENC   =       -80.57855695
  -exchange      EXHF   =         0.00000000
  -V(xc)+E(xc)   XCENC  =      -777.71521839
  PAW double counting   =      8803.41707833    -7043.47671478
  entropy T*S    EENTRO =        -0.05515837
  eigenvalues    EBANDS =      3025.68243932
  atomic energy  EATOM  =     10306.12861560
  Solvation  Ediel_sol  =         0.00000000
  ---------------------------------------------------
  free energy    TOTEN  =      -401.41819218 eV

  energy without entropy =     -401.36303382  energy(sigma->0) =     -401.39061300


--------------------------------------------------------------------------------------------------------




--------------------------------------- Iteration      1(  10)  ---------------------------------------


    EDDIAG:  cpu time    0.3373: real time    0.3394
  RMM-DIIS:  cpu time    0.9290: real time    0.9401
    ORTHCH:  cpu time    0.0980: real time    0.0986
       DOS:  cpu time    0.0003: real time    0.0003
    --------------------------------------------
      LOOP:  cpu time    1.3646: real time    1.3784

 eigenvalue-minimisations  :  1408
 total energy-change (2. order) :-0.1060423E+00  (-0.4849357E-01)
 number of electron     400.0000000 magnetization     100.0000000
 augmentation part      400.0000000 magnetization     100.0000000

 Free energy of the ion-electron system (eV)
  ---------------------------------------------------
  alpha Z        PSCENC =       316.14514549
  Ewald energy   TEWEN  =    -14950.96582243
  -Hartree energ DENC   =       -80.57855695
  -exchange      EXHF   =         0.00000000
  -V(xc)+E(xc)   XCENC  =      -777.71521839
  PAW double counting   =      8803.41707833    -7043.47671478
  entropy T*S    EENTRO =        -0.05596505
  eigenvalues    EBANDS =      3025.57720371
  atomic energy  EATOM  =     10306.12861560
  Solvation  Ediel_sol  =         0.00000000
  ---------------------------------------------------
  free energy    TOTEN  =      -401.52423448 eV

  energy without entropy =     -401.46826942  energy(sigma->0) =     -401.49625195


--------------------------------------------------------------------------------------------------------




--------------------------------------- Iteration      1(  11)  ---------------------------------------


    EDDIAG:  cpu time    0.3367: real time    0.3387
  RMM-DIIS:  cpu time    0.8896: real time    0.9005
    ORTHCH:  cpu time    0.0971: real time    0.0978
       DOS:  cpu time    0.0003: real time    0.0003
    --------------------------------------------
      LOOP:  cpu time    1.3237: real time    1.3374

 eigenvalue-minimisations  :  1326
 total energy-change (2. order) :-0.1814430E-02  (-0.1216908E-02)
 number of electron     400.0000000 magnetization     100.0000000
 augmentation part      400.0000000 magnetization     100.0000000

 Free energy of the ion-electron system (eV)
  ---------------------------------------------------
  alpha Z        PSCENC =       316.14514549
  Ewald energy   TEWEN  =    -14950.96582243
  -Hartree energ DENC   =       -80.57855695
  -exchange      EXHF   =         0.00000000
  -V(xc)+E(xc)   XCENC  =      -777.71521839
  PAW double counting   =      8803.41707833    -7043.47671478
  entropy T*S    EENTRO =        -0.05598218
  eigenvalues    EBANDS =      3025.57540641
  atomic energy  EATOM  =     10306.12861560
  Solvation  Ediel_sol  =         0.00000000
  ---------------------------------------------------
  free energy    TOTEN  =      -401.52604891 eV

  energy without entropy =     -401.47006673  energy(sigma->0) =     -401.49805782


--------------------------------------------------------------------------------------------------------




--------------------------------------- Iteration      1(  12)  ---------------------------------------


    EDDIAG:  cpu time    0.3369: real time    0.3389
  RMM-DIIS:  cpu time    0.7817: real time    0.7913
    ORTHCH:  cpu time    0.0973: real time    0.0979
       DOS:  cpu time    0.0003: real time    0.0003
    CHARGE:  cpu time    0.0437: real time    0.0439
    MIXING:  cpu time    0.0010: real time    0.0010
    --------------------------------------------
      LOOP:  cpu time    1.2609: real time    1.2734

 eigenvalue-minimisations  :  1087
 total energy-change (2. order) :-0.1362116E-04  (-0.1338895E-04)
 number of electron     400.0000010 magnetization      67.8067776
 augmentation part      -23.4506629 magnetization      40.2840776

 Broyden mixing:
  rms(total) = 0.61217E+01    rms(broyden)= 0.61216E+01
  rms(prec ) = 0.62845E+01
  weight for this iteration     100.00

 Free energy of the ion-electron system (eV)
  ---------------------------------------------------
  alpha Z        PSCENC =       316.14514549
  Ewald energy   TEWEN  =    -14950.96582243
  -Hartree energ DENC   =       -80.57855695
  -exchange      EXHF   =         0.00000000
  -V(xc)+E(xc)   XCENC  =      -777.71521839
  PAW double counting   =      8803.41707833    -7043.47671478
  entropy T*S    EENTRO =        -0.05598212
  eigenvalues    EBANDS =      3025.57539272
  atomic energy  EATOM  =     10306.12861560
  Solvation  Ediel_sol  =         0.00000000
  ---------------------------------------------------
  free energy    TOTEN  =      -401.52606253 eV

  energy without entropy =     -401.47008041  energy(sigma->0) =     -401.49807147


--------------------------------------------------------------------------------------------------------




--------------------------------------- Iteration      1(  13)  ---------------------------------------


    POTLOK:  cpu time    0.0526: real time    0.0530
    SETDIJ:  cpu time    0.0356: real time    0.0357
    EDDIAG:  cpu time    0.3376: real time    0.3397
  RMM-DIIS:  cpu time    0.8897: real time    0.9007
    ORTHCH:  cpu time    0.0984: real time    0.0991
       DOS:  cpu time    0.0004: real time    0.0004
    CHARGE:  cpu time    0.0454: real time    0.0456
    MIXING:  cpu time    0.0012: real time    0.0012
    --------------------------------------------
      LOOP:  cpu time    1.4611: real time    1.4754

 eigenvalue-minimisations  :  1349
 total energy-change (2. order) :-0.5775490E+01  (-0.9873491E+00)
 number of electron     400.0000009 magnetization      32.4526383
 augmentation part      -23.5052390 magnetization      11.7026002

 Broyden mixing:
  rms(total) = 0.36806E+01    rms(broyden)= 0.36806E+01
  rms(prec ) = 0.37597E+01
  weight for this iteration     100.00

 eigenvalues of (default mixing * dielectric matrix)
  average eigenvalue GAMMA=   1.2621
  1.2621

 Free energy of the ion-electron system (eV)
  ---------------------------------------------------
  alpha Z        PSCENC =       316.14514549
  Ewald energy   TEWEN  =    -14950.96582243
  -Hartree energ DENC   =       -98.54071869
  -exchange      EXHF   =         0.00000000
  -V(xc)+E(xc)   XCENC  =      -777.18945438
  PAW double counting   =     30731.22354628   -28977.39414145
  entropy T*S    EENTRO =        -0.05108227
  eigenvalues    EBANDS =      3043.34235973
  atomic energy  EATOM  =     10306.12861560
  Solvation  Ediel_sol  =         0.00000000
  ---------------------------------------------------
  free energy    TOTEN  =      -407.30155213 eV

  energy without entropy =     -407.25046985  energy(sigma->0) =     -407.27601099


--------------------------------------------------------------------------------------------------------




--------------------------------------- Iteration      1(  14)  ---------------------------------------


    POTLOK:  cpu time    0.0524: real time    0.0528
    SETDIJ:  cpu time    0.0356: real time    0.0357
    EDDIAG:  cpu time    0.3357: real time    0.3378
  RMM-DIIS:  cpu time    0.8990: real time    0.9101
    ORTHCH:  cpu time    0.0986: real time    0.0992
       DOS:  cpu time    0.0004: real time    0.0004
    CHARGE:  cpu time    0.0453: real time    0.0455
    MIXING:  cpu time    0.0013: real time    0.0013
    --------------------------------------------
      LOOP:  cpu time    1.4683: real time    1.4827

 eigenvalue-minimisations  :  1347
 total energy-change (2. order) :-0.7864673E+01  (-0.5482236E+00)
 number of electron     400.0000013 magnetization      14.6883264
 augmentation part      -23.6389013 magnetization       6.3308603

 Broyden mixing:
  rms(total) = 0.17413E+01    rms(broyden)= 0.17413E+01
  rms(prec ) = 0.20314E+01
  weight for this iteration     100.00

 eigenvalues of (default mixing * dielectric matrix)
  average eigenvalue GAMMA=   1.4808
  2.3786  0.5831

 Free energy of the ion-electron system (eV)
  ---------------------------------------------------
  alpha Z        PSCENC =       316.14514549
  Ewald energy   TEWEN  =    -14950.96582243
  -Hartree energ DENC   =      -109.31617768
  -exchange      EXHF   =         0.00000000
  -V(xc)+E(xc)   XCENC  =      -772.54928632
  PAW double counting   =     68101.48940531   -66353.11805513
  entropy T*S    EENTRO =        -0.06317244
  eigenvalues    EBANDS =      3047.08312254
  atomic energy  EATOM  =     10306.12861560
  Solvation  Ediel_sol  =         0.00000000
  ---------------------------------------------------
  free energy    TOTEN  =      -415.16622508 eV

  energy without entropy =     -415.10305264  energy(sigma->0) =     -415.13463886


--------------------------------------------------------------------------------------------------------




--------------------------------------- Iteration      1(  15)  ---------------------------------------


    POTLOK:  cpu time    0.0524: real time    0.0528
    SETDIJ:  cpu time    0.0356: real time    0.0358
    EDDIAG:  cpu time    0.3358: real time    0.3378
  RMM-DIIS:  cpu time    0.8948: real time    0.9059
    ORTHCH:  cpu time    0.0989: real time    0.0996
       DOS:  cpu time    0.0004: real time    0.0004
    CHARGE:  cpu time    0.0453: real time    0.0455
    MIXING:  cpu time    0.0014: real time    0.0014
    --------------------------------------------
      LOOP:  cpu time    1.4647: real time    1.4791

 eigenvalue-minimisations  :  1383
 total energy-change (2. order) :-0.5620510E+00  (-0.1256756E+00)
 number of electron     400.0000011 magnetization      10.3620162
 augmentation part      -23.6895226 magnetization       5.8655996

 Broyden mixing:
  rms(total) = 0.39580E+00    rms(broyden)= 0.39579E+00
  rms(prec ) = 0.47628E+00
  weight for this iteration     100.00

 eigenvalues of (default mixing * dielectric matrix)
  average eigenvalue GAMMA=   1.3060
  2.3982  0.9235  0.5963

 Free energy of the ion-electron system (eV)
  ---------------------------------------------------
  alpha Z        PSCENC =       316.14514549
  Ewald energy   TEWEN  =    -14950.96582243
  -Hartree energ DENC   =      -115.99676885
  -exchange      EXHF   =         0.00000000
  -V(xc)+E(xc)   XCENC  =      -770.14750559
  PAW double counting   =     86903.75328958   -85158.36342877
  entropy T*S    EENTRO =        -0.04104710
  eigenvalues    EBANDS =      3053.75924599
  atomic energy  EATOM  =     10306.12861560
  Solvation  Ediel_sol  =         0.00000000
  ---------------------------------------------------
  free energy    TOTEN  =      -415.72827609 eV

  energy without entropy =     -415.68722898  energy(sigma->0) =     -415.70775254


--------------------------------------------------------------------------------------------------------




--------------------------------------- Iteration      1(  16)  ---------------------------------------


    POTLOK:  cpu time    0.0523: real time    0.0527
    SETDIJ:  cpu time    0.0357: real time    0.0358
    EDDIAG:  cpu time    0.3351: real time    0.3371
  RMM-DIIS:  cpu time    0.9140: real time    0.9250
    ORTHCH:  cpu time    0.0986: real time    0.0992
       DOS:  cpu time    0.0003: real time    0.0004
    CHARGE:  cpu time    0.0452: real time    0.0454
    MIXING:  cpu time    0.0015: real time    0.0015
    --------------------------------------------
      LOOP:  cpu time    1.4827: real time    1.4970

 eigenvalue-minimisations  :  1396
 total energy-change (2. order) :-0.1838364E+00  (-0.3473373E-01)
 number of electron     400.0000011 magnetization       6.3150398
 augmentation part      -23.7042427 magnetization       2.7192230

 Broyden mixing:
  rms(total) = 0.26471E+00    rms(broyden)= 0.26471E+00
  rms(prec ) = 0.29841E+00
  weight for this iteration     100.00

 eigenvalues of (default mixing * dielectric matrix)
  average eigenvalue GAMMA=   1.3836
  2.3718  1.7903  0.7570  0.6151

 Free energy of the ion-electron system (eV)
  ---------------------------------------------------
  alpha Z        PSCENC =       316.14514549
  Ewald energy   TEWEN  =    -14950.96582243
  -Hartree energ DENC   =      -114.84825989
  -exchange      EXHF   =         0.00000000
  -V(xc)+E(xc)   XCENC  =      -770.02923501
  PAW double counting   =     86905.79613448   -85160.62270248
  entropy T*S    EENTRO =        -0.03823934
  eigenvalues    EBANDS =      3052.52225114
  atomic energy  EATOM  =     10306.12861560
  Solvation  Ediel_sol  =         0.00000000
  ---------------------------------------------------
  free energy    TOTEN  =      -415.91211244 eV

  energy without entropy =     -415.87387310  energy(sigma->0) =     -415.89299277


--------------------------------------------------------------------------------------------------------




--------------------------------------- Iteration      1(  17)  ---------------------------------------


    POTLOK:  cpu time    0.0538: real time    0.0542
    SETDIJ:  cpu time    0.0362: real time    0.0363
    EDDIAG:  cpu time    0.3358: real time    0.3378
  RMM-DIIS:  cpu time    0.9445: real time    0.9558
    ORTHCH:  cpu time    0.0986: real time    0.0992
       DOS:  cpu time    0.0004: real time    0.0004
    CHARGE:  cpu time    0.0453: real time    0.0455
    MIXING:  cpu time    0.0016: real time    0.0016
    --------------------------------------------
      LOOP:  cpu time    1.5161: real time    1.5307

 eigenvalue-minimisations  :  1429
 total energy-change (2. order) :-0.1142106E+00  (-0.1089856E-01)
 number of electron     400.0000011 magnetization       3.5274505
 augmentation part      -23.7142857 magnetization       0.7814072

 Broyden mixing:
  rms(total) = 0.13955E+00    rms(broyden)= 0.13955E+00
  rms(prec ) = 0.16084E+00
  weight for this iteration     100.00

 eigenvalues of (default mixing * dielectric matrix)
  average eigenvalue GAMMA=   1.3663
  2.3262  2.3262  0.8840  0.6138  0.6812

 Free energy of the ion-electron system (eV)
  ---------------------------------------------------
  alpha Z        PSCENC =       316.14514549
  Ewald energy   TEWEN  =    -14950.96582243
  -Hartree energ DENC   =      -114.33554281
  -exchange      EXHF   =         0.00000000
  -V(xc)+E(xc)   XCENC  =      -769.89047443
  PAW double counting   =     86370.90836815   -84625.89781664
  entropy T*S    EENTRO =        -0.04534524
  eigenvalues    EBANDS =      3051.92654930
  atomic energy  EATOM  =     10306.12861560
  Solvation  Ediel_sol  =         0.00000000
  ---------------------------------------------------
  free energy    TOTEN  =      -416.02632301 eV

  energy without entropy =     -415.98097777  energy(sigma->0) =     -416.00365039


--------------------------------------------------------------------------------------------------------




--------------------------------------- Iteration      1(  18)  ---------------------------------------


    POTLOK:  cpu time    0.0524: real time    0.0527
    SETDIJ:  cpu time    0.0357: real time    0.0358
    EDDIAG:  cpu time    0.3352: real time    0.3371
  RMM-DIIS:  cpu time    0.9122: real time    0.9234
    ORTHCH:  cpu time    0.0990: real time    0.0996
       DOS:  cpu time    0.0004: real time    0.0004
    CHARGE:  cpu time    0.0451: real time    0.0453
    MIXING:  cpu time    0.0017: real time    0.0017
    --------------------------------------------
      LOOP:  cpu time    1.4816: real time    1.4960

 eigenvalue-minimisations  :  1401
 total energy-change (2. order) :-0.4704064E-01  (-0.3990926E-02)
 number of electron     400.0000011 magnetization       2.1629706
 augmentation part      -23.7212182 magnetization       0.0866251

 Broyden mixing:
  rms(total) = 0.62475E-01    rms(broyden)= 0.62473E-01
  rms(prec ) = 0.73165E-01
  weight for this iteration     100.00

 eigenvalues of (default mixing * dielectric matrix)
  average eigenvalue GAMMA=   1.3691
  2.7242  2.3545  1.1391  0.8353  0.5645  0.5969

 Free energy of the ion-electron system (eV)
  ---------------------------------------------------
  alpha Z        PSCENC =       316.14514549
  Ewald energy   TEWEN  =    -14950.96582243
  -Hartree energ DENC   =      -114.15976512
  -exchange      EXHF   =         0.00000000
  -V(xc)+E(xc)   XCENC  =      -769.76123151
  PAW double counting   =     85964.58552265   -84219.69563892
  entropy T*S    EENTRO =        -0.05166009
  eigenvalues    EBANDS =      3051.70147069
  atomic energy  EATOM  =     10306.12861560
  Solvation  Ediel_sol  =         0.00000000
  ---------------------------------------------------
  free energy    TOTEN  =      -416.07336365 eV

  energy without entropy =     -416.02170356  energy(sigma->0) =     -416.04753360


--------------------------------------------------------------------------------------------------------




--------------------------------------- Iteration      1(  19)  ---------------------------------------


    POTLOK:  cpu time    0.0523: real time    0.0527
    SETDIJ:  cpu time    0.0357: real time    0.0358
    EDDIAG:  cpu time    0.3363: real time    0.3382
  RMM-DIIS:  cpu time    0.9341: real time    0.9457
    ORTHCH:  cpu time    0.0991: real time    0.0997
       DOS:  cpu time    0.0004: real time    0.0004
    CHARGE:  cpu time    0.0439: real time    0.0441
    MIXING:  cpu time    0.0018: real time    0.0019
    --------------------------------------------
      LOOP:  cpu time    1.5037: real time    1.5185

 eigenvalue-minimisations  :  1421
 total energy-change (2. order) :-0.8752412E-02  (-0.1099262E-02)
 number of electron     400.0000011 magnetization       1.5725466
 augmentation part      -23.7226144 magnetization      -0.0296922

 Broyden mixing:
  rms(total) = 0.26892E-01    rms(broyden)= 0.26889E-01
  rms(prec ) = 0.32477E-01
  weight for this iteration     100.00

 eigenvalues of (default mixing * dielectric matrix)
  average eigenvalue GAMMA=   1.3348
  2.9283  2.3558  1.2056  0.9371  0.7776  0.6100  0.5295

 Free energy of the ion-electron system (eV)
  ---------------------------------------------------
  alpha Z        PSCENC =       316.14514549
  Ewald energy   TEWEN  =    -14950.96582243
  -Hartree energ DENC   =      -114.39767331
  -exchange      EXHF   =         0.00000000
  -V(xc)+E(xc)   XCENC  =      -769.68866812
  PAW double counting   =     85766.99824718   -84022.17016800
  entropy T*S    EENTRO =        -0.06053112
  eigenvalues    EBANDS =      3051.92873866
  atomic energy  EATOM  =     10306.12861560
  Solvation  Ediel_sol  =         0.00000000
  ---------------------------------------------------
  free energy    TOTEN  =      -416.08211606 eV

  energy without entropy =     -416.02158494  energy(sigma->0) =     -416.05185050


--------------------------------------------------------------------------------------------------------




--------------------------------------- Iteration      1(  20)  ---------------------------------------


    POTLOK:  cpu time    0.0523: real time    0.0527
    SETDIJ:  cpu time    0.0357: real time    0.0358
    EDDIAG:  cpu time    0.3366: real time    0.3385
  RMM-DIIS:  cpu time    0.9536: real time    0.9655
    ORTHCH:  cpu time    0.0995: real time    0.1001
       DOS:  cpu time    0.0004: real time    0.0004
    CHARGE:  cpu time    0.0439: real time    0.0441
    MIXING:  cpu time    0.0020: real time    0.0020
    --------------------------------------------
      LOOP:  cpu time    1.5238: real time    1.5389

 eigenvalue-minimisations  :  1451
 total energy-change (2. order) :-0.2111320E-02  (-0.2805806E-03)
 number of electron     400.0000011 magnetization       1.2410988
 augmentation part      -23.7229606 magnetization      -0.0604443

 Broyden mixing:
  rms(total) = 0.14521E-01    rms(broyden)= 0.14519E-01
  rms(prec ) = 0.19684E-01
  weight for this iteration     100.00

 eigenvalues of (default mixing * dielectric matrix)
  average eigenvalue GAMMA=   1.3626
  3.2528  2.3103  1.5368  1.1614  0.8563  0.6490  0.6180  0.5162

 Free energy of the ion-electron system (eV)
  ---------------------------------------------------
  alpha Z        PSCENC =       316.14514549
  Ewald energy   TEWEN  =    -14950.96582243
  -Hartree energ DENC   =      -114.47261266
  -exchange      EXHF   =         0.00000000
  -V(xc)+E(xc)   XCENC  =      -769.67017506
  PAW double counting   =     85653.04049872   -83908.23038284
  entropy T*S    EENTRO =        -0.06653446
  eigenvalues    EBANDS =      3052.00704026
  atomic energy  EATOM  =     10306.12861560
  Solvation  Ediel_sol  =         0.00000000
  ---------------------------------------------------
  free energy    TOTEN  =      -416.08422738 eV

  energy without entropy =     -416.01769292  energy(sigma->0) =     -416.05096015


--------------------------------------------------------------------------------------------------------




--------------------------------------- Iteration      1(  21)  ---------------------------------------


    POTLOK:  cpu time    0.0523: real time    0.0527
    SETDIJ:  cpu time    0.0357: real time    0.0358
    EDDIAG:  cpu time    0.3367: real time    0.3386
  RMM-DIIS:  cpu time    0.9268: real time    0.9380
    ORTHCH:  cpu time    0.1001: real time    0.1007
       DOS:  cpu time    0.0004: real time    0.0004
    CHARGE:  cpu time    0.0445: real time    0.0447
    MIXING:  cpu time    0.0021: real time    0.0022
    --------------------------------------------
      LOOP:  cpu time    1.4985: real time    1.5129

 eigenvalue-minimisations  :  1414
 total energy-change (2. order) :-0.7960136E-03  (-0.1170662E-03)
 number of electron     400.0000011 magnetization       0.9933451
 augmentation part      -23.7229062 magnetization      -0.0871667

 Broyden mixing:
  rms(total) = 0.95233E-02    rms(broyden)= 0.95217E-02
  rms(prec ) = 0.10435E-01
  weight for this iteration     100.00

 eigenvalues of (default mixing * dielectric matrix)
  average eigenvalue GAMMA=   1.3887
  3.6468  2.1544  2.0111  1.0641  1.0641  0.8086  0.5133  0.6178  0.6178

 Free energy of the ion-electron system (eV)
  ---------------------------------------------------
  alpha Z        PSCENC =       316.14514549
  Ewald energy   TEWEN  =    -14950.96582243
  -Hartree energ DENC   =      -114.49442677
  -exchange      EXHF   =         0.00000000
  -V(xc)+E(xc)   XCENC  =      -769.66606814
  PAW double counting   =     85611.40651525   -83866.60220586
  entropy T*S    EENTRO =        -0.07014547
  eigenvalues    EBANDS =      3052.03336894
  atomic energy  EATOM  =     10306.12861560
  Solvation  Ediel_sol  =         0.00000000
  ---------------------------------------------------
  free energy    TOTEN  =      -416.08502339 eV

  energy without entropy =     -416.01487793  energy(sigma->0) =     -416.04995066


--------------------------------------------------------------------------------------------------------




--------------------------------------- Iteration      1(  22)  ---------------------------------------


    POTLOK:  cpu time    0.0528: real time    0.0535
    SETDIJ:  cpu time    0.0357: real time    0.0358
    EDDIAG:  cpu time    0.3364: real time    0.3384
  RMM-DIIS:  cpu time    0.9230: real time    0.9345
    ORTHCH:  cpu time    0.0990: real time    0.0996
       DOS:  cpu time    0.0004: real time    0.0004
    CHARGE:  cpu time    0.0439: real time    0.0441
    MIXING:  cpu time    0.0023: real time    0.0023
    --------------------------------------------
      LOOP:  cpu time    1.4935: real time    1.5086

 eigenvalue-minimisations  :  1404
[...]
   0.133E+02 -.131E+01 -.153E+02   -.131E+02 0.269E+01 0.138E+02   -.303E+01 -.244E+01 0.219E+01   0.345E-04 0.397E-03 -.188E-03
   0.964E+01 -.689E+01 -.119E+01   -.817E+01 0.582E+01 0.676E+00   -.288E+01 0.265E+01 0.500E+00   0.912E-04 -.119E-03 0.262E-03
   -.975E+01 0.471E+01 0.965E+01   0.881E+01 -.496E+01 -.972E+01   0.158E+01 0.150E+00 0.444E+00   0.351E-04 0.196E-03 0.861E-04
   -.213E+01 -.816E+01 -.674E+01   0.142E+01 0.976E+01 0.734E+01   0.152E+01 -.122E+01 0.171E+00   -.105E-04 0.469E-03 0.436E-03
   -.372E+00 0.497E+01 -.134E+02   -.107E-01 -.479E+01 0.124E+02   0.123E+01 0.288E+00 0.249E+01   0.110E-04 0.225E-03 0.350E-03
   0.303E+02 0.133E+02 -.176E+02   -.271E+02 -.118E+02 0.153E+02   -.673E+01 -.324E+01 0.382E+01   0.105E-03 -.570E-03 -.268E-03
   0.113E+02 -.200E+02 -.774E+01   -.112E+02 0.178E+02 0.807E+01   -.163E+01 0.506E+01 -.789E+00   0.820E-04 0.107E-03 -.170E-03
   0.670E+01 0.109E+01 -.107E+02   -.594E+01 -.480E+00 0.116E+02   -.216E+01 -.180E+01 -.117E+01   -.138E-03 0.387E-03 0.108E-03
   0.711E+01 -.675E+01 0.704E+01   -.680E+01 0.695E+01 -.698E+01   -.105E+01 0.426E+00 -.101E+01   0.170E-04 0.106E-03 0.169E-04
   -.227E+01 -.132E+01 0.525E+01   0.188E+01 0.737E+00 -.622E+01   0.149E+01 0.134E+00 0.598E+00   0.144E-03 0.210E-03 -.548E-03
   0.128E+02 0.461E+01 -.134E+02   -.124E+02 -.370E+01 0.113E+02   -.164E+01 -.767E+00 0.246E+01   0.128E-03 -.301E-04 0.353E-03
   -.156E+02 -.579E+01 -.871E+01   0.155E+02 0.528E+01 0.974E+01   0.205E+01 0.116E+01 0.268E+00   0.523E-04 0.577E-04 -.183E-03
   -.137E+02 -.530E+01 -.132E+02   0.121E+02 0.590E+01 0.127E+02   0.437E+01 -.113E+01 0.623E+00   -.843E-04 0.384E-03 -.685E-04
   0.103E+02 -.329E+00 -.122E+02   -.860E+01 -.766E+00 0.115E+02   -.280E+01 0.136E+01 0.162E+01   0.286E-04 0.424E-03 0.406E-03
   0.174E+02 -.996E+00 -.422E+01   -.166E+02 0.107E+01 0.368E+01   -.206E+01 -.434E+00 0.101E+01   0.280E-03 0.564E-03 -.538E-03
   -.734E+01 -.506E+01 0.346E+00   0.633E+01 0.370E+01 -.167E+00   0.222E+01 0.276E+01 0.601E+00   -.190E-03 0.549E-03 0.416E-03
   0.494E+01 0.764E+01 0.162E+02   -.340E+01 -.641E+01 -.155E+02   -.211E+01 -.247E+01 -.162E+01   -.295E-03 -.335E-03 0.528E-03
   0.710E+01 -.367E+01 -.632E+00   -.556E+01 0.273E+01 0.235E+00   -.220E+01 0.128E+01 -.345E+00   0.925E-04 0.467E-03 0.171E-03
   0.849E+01 -.134E+02 -.643E+01   -.675E+01 0.128E+02 0.656E+01   -.315E+01 0.151E+01 0.854E+00   -.263E-03 0.416E-03 -.379E-03
   0.162E+02 -.337E+01 0.387E+01   -.155E+02 0.481E+01 -.447E+01   -.217E+01 -.857E+00 0.110E+01   -.141E-03 0.518E-04 0.420E-03
   0.177E+02 0.418E+00 0.113E+02   -.170E+02 -.145E+01 -.117E+02   -.307E+01 0.206E+01 -.188E+01   0.158E-03 -.320E-03 0.141E-03
   -.939E+01 -.199E+02 0.131E+01   0.890E+01 0.186E+02 -.591E+00   0.107E+01 0.287E+01 -.105E+01   -.103E-03 0.204E-03 -.232E-03
   -.133E+02 -.569E+01 0.596E+01   0.124E+02 0.696E+01 -.639E+01   0.208E+01 -.117E+01 0.338E+00   -.383E-04 0.379E-03 0.351E-03
   0.115E+01 0.196E+02 0.700E+01   -.205E+01 -.200E+02 -.728E+01   0.826E+00 -.154E+01 -.406E+00   -.728E-04 -.257E-03 -.329E-03
   0.704E-02 0.337E+01 0.104E+02   0.349E+00 -.322E+01 -.101E+02   -.756E+00 -.351E+00 -.198E+00   -.466E-04 -.196E-03 0.302E-03
   -.104E+02 0.792E+00 -.763E+01   0.102E+02 -.112E+01 0.854E+01   0.180E+01 0.214E+00 -.857E+00   0.892E-04 -.465E-03 -.294E-03
   -.202E-01 -.126E+01 -.179E+02   -.707E+00 0.113E+01 0.157E+02   0.153E+01 0.849E+00 0.494E+01   0.156E-04 -.384E-03 -.177E-03
   -.622E+01 0.535E+01 0.154E+02   0.539E+01 -.314E+01 -.145E+02   0.251E+01 -.318E+01 -.124E+01   -.157E-03 -.600E-03 0.248E-04
   0.234E+01 -.209E+01 0.119E+02   -.435E+00 0.252E+01 -.127E+02   -.270E+01 -.885E+00 -.230E+00   -.983E-04 0.524E-03 0.478E-03
   -.867E+01 0.146E+02 -.218E+01   0.931E+01 -.143E+02 0.156E+01   -.101E+01 -.141E+01 0.100E+01   -.118E-03 -.680E-03 -.122E-03
   0.764E+00 0.339E+01 0.255E+01   -.436E+00 -.237E+01 -.410E+01   -.103E-01 -.106E+01 0.113E+01   0.163E-03 0.474E-03 -.150E-03
   0.227E+02 -.426E+01 -.717E+01   -.205E+02 0.590E+01 0.705E+01   -.458E+01 -.126E+01 0.929E+00   0.105E-03 -.676E-04 -.345E-03
   -.257E+02 -.112E+02 -.410E+01   0.248E+02 0.115E+02 0.253E+01   0.274E+01 0.915E+00 0.267E+01   -.180E-03 0.340E-03 -.468E-03
   0.940E+01 -.176E+01 0.500E+01   -.105E+02 0.153E+01 -.538E+01   0.146E+01 0.113E+01 -.976E+00   0.753E-04 -.298E-03 -.451E-03
   -.300E+02 0.299E+01 0.128E+02   0.279E+02 -.266E+01 -.129E+02   0.499E+01 -.662E+00 -.160E+01   0.113E-03 -.369E-03 0.364E-03
   0.666E+01 0.694E+01 0.190E+01   -.567E+01 -.930E+01 -.492E-01   -.217E+01 0.180E+01 -.249E+01   -.112E-04 0.458E-03 0.444E-03
   -.825E+01 -.460E+01 0.669E+01   0.826E+01 0.454E+01 -.387E+01   0.292E+00 0.239E-02 -.370E+01   -.172E-03 0.653E-04 -.446E-03
   -.531E+01 0.701E+01 0.165E+02   0.473E+01 -.688E+01 -.164E+02   0.236E+01 -.100E+01 -.158E+01   -.196E-03 0.780E-04 -.498E-03
   -.536E+00 0.686E+01 -.139E+02   0.736E+00 -.701E+01 0.144E+02   -.899E-01 -.752E+00 0.830E+00   0.507E-03 -.614E-03 0.255E-03
   0.151E+02 0.252E+02 -.158E+02   -.143E+02 -.243E+02 0.154E+02   -.799E+00 -.411E+01 0.138E+01   0.891E-05 -.213E-03 -.137E-04
   0.786E+01 0.608E+01 0.174E+02   -.792E+01 -.537E+01 -.164E+02   -.126E+01 -.158E+01 -.223E+01   0.167E-03 0.825E-03 0.368E-03
   -.120E+02 -.154E+02 -.756E+01   0.109E+02 0.138E+02 0.625E+01   0.139E+01 0.282E+01 0.255E+01   0.882E-04 -.820E-03 0.163E-03
   0.853E+01 0.556E+00 0.108E+02   -.756E+01 -.370E+00 -.122E+02   -.110E+01 -.676E+00 0.101E+01   0.205E-03 0.471E-03 -.355E-04
   -.476E+01 0.167E+01 0.129E+02   0.410E+01 -.978E+00 -.128E+02   0.113E+01 -.608E+00 -.109E+01   -.165E-03 0.422E-03 -.406E-03
   -.241E+02 -.984E+00 0.471E+01   0.227E+02 0.221E+01 -.317E+01   0.328E+01 -.925E+00 -.230E+01   -.107E-03 -.629E-03 0.313E-03
   -.336E+01 0.126E+02 -.500E+01   0.356E+01 -.116E+02 0.355E+01   -.463E+00 -.278E+01 0.309E+01   -.332E-04 -.701E-03 0.209E-03
   -.633E+00 -.103E+02 -.418E+01   0.148E+01 0.976E+01 0.389E+01   -.892E+00 0.216E+01 0.353E+00   -.180E-04 -.350E-03 -.322E-04
   0.415E+01 0.136E+02 -.109E+02   -.556E+01 -.134E+02 0.107E+02   0.232E+01 -.191E+01 0.736E+00   0.190E-03 -.534E-03 -.215E-03
   -.172E+02 -.375E+00 -.710E+01   0.161E+02 -.186E+00 0.710E+01   0.257E+01 0.648E+00 -.168E-01   -.984E-04 -.243E-03 -.148E-03
   0.303E+01 -.443E+01 -.332E+01   -.395E+01 0.528E+01 0.233E+01   0.969E+00 -.118E+01 0.138E+01   0.139E-03 0.424E-03 -.230E-03
   0.132E+02 -.200E+02 0.134E+02   -.116E+02 0.172E+02 -.135E+02   -.344E+01 0.513E+01 -.855E+00   -.188E-03 -.632E-03 0.106E-03
   -.123E+02 -.187E+01 0.417E+01   0.124E+02 0.151E+01 -.349E+01   0.297E+00 0.101E+01 -.585E+00   0.158E-04 -.287E-03 -.404E-04
   -.736E+01 -.394E+01 -.109E+02   0.740E+01 0.250E+01 0.115E+02   0.228E+00 0.294E+01 -.263E-01   -.110E-03 -.552E-03 -.418E-03
   -.529E+01 -.952E+01 0.118E+02   0.503E+01 0.970E+01 -.954E+01   0.102E+01 -.612E+00 -.478E+01   -.106E-03 0.605E-03 -.370E-04
   0.620E+01 -.628E+01 0.250E+00   -.554E+01 0.492E+01 0.120E+01   -.849E+00 0.388E+01 -.275E+01   -.137E-03 -.706E-03 -.999E-04
   0.852E+01 0.929E+01 0.531E-01   -.767E+01 -.894E+01 -.114E+01   -.333E+01 -.223E+00 0.226E+01   -.240E-03 -.464E-04 -.373E-03
   -.449E-01 -.872E+01 0.623E+00   0.166E+01 0.840E+01 0.136E+00   -.254E+01 0.154E+01 -.128E+01   0.442E-04 0.143E-03 0.332E-03
   -.120E+02 -.141E+02 -.370E+01   0.116E+02 0.120E+02 0.321E+01   0.136E+01 0.373E+01 0.486E+00   -.133E-04 -.179E-03 0.108E-03
   -.422E+01 -.150E+02 0.972E+01   0.356E+01 0.145E+02 -.909E+01   0.568E+00 0.138E+01 -.968E+00   -.226E-03 0.396E-03 -.343E-03
   -.497E+01 0.291E+02 -.190E+02   0.537E+01 -.278E+02 0.189E+02   0.126E+01 -.397E+01 0.110E+01   -.795E-04 -.537E-03 -.353E-03
   -.132E+02 0.116E+02 0.137E+01   0.121E+02 -.116E+02 -.184E+01   0.185E+01 0.245E+00 0.725E+00   -.948E-04 -.537E-03 -.344E-03
   -.912E+01 -.667E+01 -.520E+01   0.709E+01 0.814E+01 0.722E+01   0.323E+01 -.170E+01 -.266E+01   0.456E-04 0.648E-03 0.161E-03
   0.117E+02 -.579E+01 -.399E+01   -.104E+02 0.629E+01 0.583E+01   -.361E+01 0.435E-01 -.229E+01   -.549E-04 0.533E-03 0.306E-03
   -.672E+01 -.495E+01 -.304E-01   0.634E+01 0.361E+01 0.102E+01   0.983E+00 0.162E+01 -.124E+01   0.140E-03 -.659E-03 0.369E-03
   -.701E+01 0.781E+01 -.155E+02   0.544E+01 -.734E+01 0.149E+02   0.275E+01 -.130E+01 0.174E+01   -.536E-04 -.409E-04 -.464E-04
   -.720E+01 0.240E+01 0.351E+00   0.663E+01 -.204E+01 0.874E+00   0.266E+00 -.174E+01 -.226E+01   0.114E-04 0.300E-03 0.598E-03
   0.765E+01 0.805E+01 -.140E+02   -.803E+01 -.808E+01 0.125E+02   0.104E+01 0.109E+01 0.236E+01   -.661E-04 -.162E-03 -.658E-05
   -.531E+01 -.128E+01 -.117E+01   0.611E+01 0.986E+00 0.252E+00   -.209E+00 0.862E+00 0.712E+00   0.704E-04 -.676E-03 -.371E-03
   0.582E+01 0.943E-01 -.912E+01   -.615E+01 0.303E+00 0.823E+01   0.864E+00 -.146E+01 0.211E+01   0.116E-03 0.787E-03 0.600E-03
   -.459E+01 0.344E+01 0.107E+02   0.476E+01 -.344E+01 -.103E+02   -.548E+00 -.101E+01 -.153E+01   0.197E-03 0.132E-03 0.248E-03
   -.937E+01 -.103E+01 0.188E+01   0.915E+01 0.384E+01 -.228E+01   -.461E-04 -.421E+01 -.442E+00   -.220E-03 -.187E-03 0.136E-04
 -----------------------------------------------------------------------------------------------
   0.790E+01 0.807E+00 -.379E+01   -.746E-13 0.163E-12 0.409E-13   -.791E+01 -.808E+00 0.378E+01   0.133E-03 -.217E-03 0.446E-03
 
 
 POSITION                                       TOTAL-FORCE (eV/Angst)
 -----------------------------------------------------------------------------------
      0.10588      1.98369      0.43189        -0.546196     -2.591391      0.223379
      2.16441      7.31391      5.35500         1.948917      1.013512      1.661189
      5.86526      8.37726      8.96771         0.494153      2.516554      1.300797
      2.06274      4.09646      3.29140         0.671548      0.105601      1.672901
      2.07311      1.92915      4.45163        -0.188591     -0.499574     -2.932813
      6.41540      3.35492      2.39309        -0.629048     -0.343265      0.493115
      5.69983      4.44179      4.42316        -1.363402      0.865314      0.432685
      8.06976      3.87053      9.98169        -1.020931     -0.619428     -0.350852
      8.71729      3.21482      1.73723        -0.270723      0.415941      1.385096
      9.65229      5.34685      4.62986         1.126980      0.909305      3.060704
      8.81430      6.66151      2.96582        -1.235367     -0.039776     -0.312087
      4.11394      2.94410      2.86393        -0.368248     -0.571361      0.686147
      7.77149      0.19402      4.35760        -1.303539     -1.525102      0.155613
      6.54580      9.65048      1.07472        -0.573042      1.383201     -1.729267
      8.91233      8.89086      0.34366         0.323828     -0.045278      0.024074
      2.14594      8.45679      0.86269         0.017431      0.419924     -0.443624
      0.81893      8.72698      6.89910         0.580448     -0.295290      0.567706
      6.20070      0.56299      9.08939         0.545961     -1.120433     -0.327066
      9.29231      6.11195      0.60830        -0.659622      1.449645      1.539860
      6.36105      0.97975      2.81956        -0.710377      0.522312     -0.862537
      0.29684      7.67308      2.04638         1.031288     -1.234287     -1.994973
      5.22463      6.50187      8.27068        -0.609866     -1.865293     -2.588498
      8.85659      9.45365      6.19829         0.807922     -2.782831     -0.443692
      9.36942      5.19501      8.78589        -0.015847      0.064662     -2.129335
      5.92958      8.54397      6.54797         2.848798      0.744647      0.384203
      7.34782      7.55380      1.23095         1.162123      0.061171      0.358724
      5.44975      6.50136      5.70706        -0.866883     -1.155290      0.540208
      7.96792      9.06819      8.46593        -0.680257      1.438366     -0.157076
      4.13744      1.45593      9.14079        -0.727608      1.468951      0.417958
      3.83957      8.12540      6.67026        -2.786801     -1.064671      0.632937
      0.44802      9.88987      1.43651        -1.407879      1.582384     -0.013412
      4.22936      9.41224      0.01867         0.635275     -0.093154      0.373675
      1.81079      8.64007      3.39327         0.812581      0.380351      0.771245
      6.21699      8.87608      3.13695         0.844261      0.472535      1.469805
      5.85032      2.12474      7.08193        -3.563575     -1.686318      1.535893
      5.22137      4.17653      6.98567        -1.478230      2.847596     -0.462477
      1.59293      5.07842      5.58403        -1.395527     -1.191251     -0.319167
      9.42947      3.95173      6.72643        -0.729032      0.626492     -0.954817
      5.47550      5.41043     10.19868         1.090471     -0.444350     -0.373079
      2.30030      0.47438      2.40780        -1.294753      0.140022      0.319340
      0.20842      4.19606      0.23944         1.963533      0.651654      1.301140
      3.39364      5.55034      6.69760         2.749497     -0.537357      0.089113
      7.88014      7.88364      4.68471        -1.139690      0.263110      0.896781
      7.52862      6.71871      9.29007        -1.199990     -0.354701      0.475201
      2.96055      6.60596      2.03950         1.210165      1.397532      0.779897
      4.49028      1.07406      1.47087        -0.572150     -1.240602     -0.894092
      4.37814      8.07591      4.41961        -0.656013      0.337705     -0.741305
      2.20346      6.80076      7.99566        -1.417308      0.837587      0.986799
      4.86689      5.08831      2.13019        -1.482248      0.586495      0.499862
      0.15166      3.15940      4.61279        -2.413391      1.027393     -2.281045
      1.35253      4.52970      8.13364         0.582824      1.607430     -0.322139
      3.62071      5.76723      4.19023         1.140946      0.095862     -0.091724
     10.11214      2.83255      8.57217        -0.073577     -1.939477     -0.681193
      2.29392      0.64619      0.14066        -0.399776     -0.206774      0.071038
      7.90394      2.39156      7.97691         1.643394     -0.117227      0.047390
      1.31406      2.85990      6.37299         0.799052      0.720255      2.705242
      6.51378      2.07412      0.62687         1.684336     -0.974020     -0.420622
      1.36822      6.30702      3.58341        -0.793252     -0.454512     -1.001945
      0.80748      0.72364      5.94657        -0.381029     -1.195218      0.378853
      7.92320      7.38055      6.98581         0.318235     -0.048408     -0.414135
      6.13413      3.43175      8.99204        -2.399045      0.388325      0.811645
      9.63056      7.49820      8.69909         1.848854      1.211319      1.103646
      4.43122     10.08175      7.55296         0.373454      0.910345     -1.363347
      9.91457     10.11006      4.17863         2.874253     -0.328294     -1.695460
      4.00866      9.02346      2.37921        -1.188655     -0.555328     -0.641482
      3.49952      4.83126      9.22982         0.308194     -0.060574     -0.878385
      2.66286      9.03403      8.58325         1.775249     -0.869399     -1.475983
      0.06655      1.80154      2.78820         0.111278     -0.893908      1.361945
      5.58725      0.04731      5.07314         0.055060     -3.158423      1.036342
      5.18380      7.41246      1.46452        -1.319508     -0.866236     -1.292169
      8.91396      1.57757      5.74169         0.205812      1.243212      1.243643
      7.27898      5.31766      1.47889        -0.126972     -0.490228     -0.383373
      3.59842      7.08779      9.94997         0.470261      0.082993     -0.922895
      7.78898      2.40751      3.92683         1.919433      0.304448     -0.757198
      8.44574      0.96930      1.65568        -0.259983     -1.860968      1.636839
      3.59248      3.59321      5.16037        -0.046220      1.597573      0.061238
      7.06303      0.43481      6.77117         0.906571     -1.689005      0.581412
      3.18197      3.12079      7.69691         1.416165      0.087045     -0.018079
      7.21188      5.08636      7.76708         0.055127     -0.331745      0.388038
      4.52422      3.10138      0.56036        -1.833259      2.348576     -0.983755
      2.12531      2.83537      9.70174         0.428595      0.648329      0.089442
      9.65185      0.46387      7.85834         0.270803      1.505728      0.599870
     10.14533      6.28864      6.95220         0.768177     -0.431900     -2.499884
      5.49559      2.14499      4.82871        -0.184674      2.519360     -1.299730
      0.70827      9.40188      9.29781        -2.482168      0.123123      1.168212
      8.71475      8.92962      2.69621        -0.929432      1.223739     -0.515786
      7.27037      3.31714      5.89099         1.004819      1.643441     -0.005442
      1.25453      6.38894     10.17588        -0.095396      0.963634     -0.337178
      3.50861      1.59457      6.13515         1.662998     -2.709269      0.995908
      1.69590      1.06471      8.04010         0.795337      0.213986      0.259164
      7.50896      5.67433      5.65054         1.196872     -0.232110     -0.631507
      0.06259      7.77269      4.95249        -2.318997      0.543067     -0.452479
      1.95211      2.55322      1.73461         0.599251      0.277013     -0.251165
      2.55011      9.76279      5.23088         1.185254     -0.836964      1.143819
      7.82710      4.70524      3.65601        -0.308034     -1.386187     -1.037131
      4.02233      0.68507      3.69565         0.655103      1.062665      0.851844
      8.38746      0.85605      9.67436         0.586483      0.569685     -0.211261
      6.20031      6.63794      3.39283         0.531438     -1.065699      1.224099
      0.02475      4.72834      2.52923        -0.373622     -1.010528     -1.052350
      2.42683      4.75081      1.05530        -0.219077     -1.407709     -0.846662
 -----------------------------------------------------------------------------------
    total drift:                               -0.015904     -0.001340     -0.003018


--------------------------------------------------------------------------------------------------------



  FREE ENERGIE OF THE ION-ELECTRON SYSTEM (eV)
  ---------------------------------------------------
  free  energy   TOTEN  =      -416.08635288 eV

  energy  without entropy=     -416.00834116  energy(sigma->0) =     -416.04734702
 


--------------------------------------------------------------------------------------------------------


    POTLOK:  cpu time    0.0889: real time    0.0892


--------------------------------------------------------------------------------------------------------


     LOOP+:  cpu time   38.2059: real time   38.8534
    4ORBIT:  cpu time    0.0000: real time    0.0000

 total amount of memory used by VASP MPI-rank0    53953. kBytes
=======================================================================

   base      :      30000. kBytes
   nonlr-proj:       8285. kBytes
   fftplans  :       1377. kBytes
   grid      :       7520. kBytes
   one-center:        614. kBytes
   wavefun   :       6157. kBytes
 
  
  
 General timing and accounting informations for this job:
 ========================================================
  
                  Total CPU time used (sec):       39.326
                            User time (sec):       37.868
                          System time (sec):        1.458
                         Elapsed time (sec):       41.232
  
                   Maximum memory used (kb):      174284.
                   Average memory used (kb):           0.
  
                          Minor page faults:       111317
                          Major page faults:            0
                 Voluntary context switches:          860
