BEGIN_CFG
 Size
    100
 Supercell
        10.211495      0.000000      0.000000
         0.000000     10.211495      0.000000
         0.000000      0.000000     10.211495
 AtomData:  id type       cartes_x      cartes_y      cartes_z           fx          fy          fz
             1    0       0.105880      1.983690      0.431890    -0.546196   -2.591391    0.223379
             2    0       2.164410      7.313910      5.355000     1.948917    1.013512    1.661189
             3    0       5.865260      8.377260      8.967710     0.494153    2.516554    1.300797
             4    0       2.062740      4.096460      3.291400     0.671548    0.105601    1.672901
             5    0       2.073110      1.929150      4.451630    -0.188591   -0.499574   -2.932813
             6    0       6.415400      3.354920      2.393090    -0.629048   -0.343265    0.493115
             7    0       5.699830      4.441790      4.423160    -1.363402    0.865314    0.432685
             8    0       8.069760      3.870530      9.981690    -1.020931   -0.619428   -0.350852
             9    0       8.717290      3.214820      1.737230    -0.270723    0.415941    1.385096
            10    0       9.652290      5.346850      4.629860     1.126980    0.909305    3.060704
            11    0       8.814300      6.661510      2.965820    -1.235367   -0.039776   -0.312087
            12    0       4.113940      2.944100      2.863930    -0.368248   -0.571361    0.686147
            13    0       7.771490      0.194020      4.357600    -1.303539   -1.525102    0.155613
            14    0       6.545800      9.650480      1.074720    -0.573042    1.383201   -1.729267
            15    0       8.912330      8.890860      0.343660     0.323828   -0.045278    0.024074
            16    0       2.145940      8.456790      0.862690     0.017431    0.419924   -0.443624
            17    0       0.818930      8.726980      6.899100     0.580448   -0.295290    0.567706
            18    0       6.200700      0.562990      9.089390     0.545961   -1.120433   -0.327066
            19    0       9.292310      6.111950      0.608300    -0.659622    1.449645    1.539860
            20    0       6.361050      0.979750      2.819560    -0.710377    0.522312   -0.862537
            21    0       0.296840      7.673080      2.046380     1.031288   -1.234287   -1.994973
            22    0       5.224630      6.501870      8.270680    -0.609866   -1.865293   -2.588498
            23    0       8.856590      9.453650      6.198290     0.807922   -2.782831   -0.443692
            24    0       9.369420      5.195010      8.785890    -0.015847    0.064662   -2.129335
            25    0       5.929580      8.543970      6.547970     2.848798    0.744647    0.384203
            26    0       7.347820      7.553800      1.230950     1.162123    0.061171    0.358724
            27    0       5.449750      6.501360      5.707060    -0.866883   -1.155290    0.540208
            28    0       7.967920      9.068190      8.465930    -0.680257    1.438366   -0.157076
            29    0       4.137440      1.455930      9.140790    -0.727608    1.468951    0.417958
            30    0       3.839570      8.125400      6.670260    -2.786801   -1.064671    0.632937
            31    0       0.448020      9.889870      1.436510    -1.407879    1.582384   -0.013412
            32    0       4.229360      9.412240      0.018670     0.635275   -0.093154    0.373675
            33    0       1.810790      8.640070      3.393270     0.812581    0.380351    0.771245
            34    0       6.216990      8.876080      3.136950     0.844261    0.472535    1.469805
            35    0       5.850320      2.124740      7.081930    -3.563575   -1.686318    1.535893
            36    0       5.221370      4.176530      6.985670    -1.478230    2.847596   -0.462477
            37    0       1.592930      5.078420      5.584030    -1.395527   -1.191251   -0.319167
            38    0       9.429470      3.951730      6.726430    -0.729032    0.626492   -0.954817
            39    0       5.475500      5.410430     10.198680     1.090471   -0.444350   -0.373079
            40    0       2.300300      0.474380      2.407800    -1.294753    0.140022    0.319340
            41    0       0.208420      4.196060      0.239440     1.963533    0.651654    1.301140
            42    0       3.393640      5.550340      6.697600     2.749497   -0.537357    0.089113
            43    0       7.880140      7.883640      4.684710    -1.139690    0.263110    0.896781
            44    0       7.528620      6.718710      9.290070    -1.199990   -0.354701    0.475201
            45    0       2.960550      6.605960      2.039500     1.210165    1.397532    0.779897
            46    0       4.490280      1.074060      1.470870    -0.572150   -1.240602   -0.894092
            47    0       4.378140      8.075910      4.419610    -0.656013    0.337705   -0.741305
            48    0       2.203460      6.800760      7.995660    -1.417308    0.837587    0.986799
            49    0       4.866890      5.088310      2.130190    -1.482248    0.586495    0.499862
            50    0       0.151660      3.159400      4.612790    -2.413391    1.027393   -2.281045
            51    0       1.352530      4.529700      8.133640     0.582824    1.607430   -0.322139
            52    0       3.620710      5.767230      4.190230     1.140946    0.095862   -0.091724
            53    0      10.112140      2.832550      8.572170    -0.073577   -1.939477   -0.681193
            54    0       2.293920      0.646190      0.140660    -0.399776   -0.206774    0.071038
            55    0       7.903940      2.391560      7.976910     1.643394   -0.117227    0.047390
            56    0       1.314060      2.859900      6.372990     0.799052    0.720255    2.705242
            57    0       6.513780      2.074120      0.626870     1.684336   -0.974020   -0.420622
            58    0       1.368220      6.307020      3.583410    -0.793252   -0.454512   -1.001945
            59    0       0.807480      0.723640      5.946570    -0.381029   -1.195218    0.378853
            60    0       7.923200      7.380550      6.985810     0.318235   -0.048408   -0.414135
            61    0       6.134130      3.431750      8.992040    -2.399045    0.388325    0.811645
            62    0       9.630560      7.498200      8.699090     1.848854    1.211319    1.103646
            63    0       4.431220     10.081750      7.552960     0.373454    0.910345   -1.363347
            64    0       9.914570     10.110060      4.178630     2.874253   -0.328294   -1.695460
            65    0       4.008660      9.023460      2.379210    -1.188655   -0.555328   -0.641482
            66    0       3.499520      4.831260      9.229820     0.308194   -0.060574   -0.878385
            67    0       2.662860      9.034030      8.583250     1.775249   -0.869399   -1.475983
            68    0       0.066550      1.801540      2.788200     0.111278   -0.893908    1.361945
            69    0       5.587250      0.047310      5.073140     0.055060   -3.158423    1.036342
            70    0       5.183800      7.412460      1.464520    -1.319508   -0.866236   -1.292169
            71    0       8.913960      1.577570      5.741690     0.205812    1.243212    1.243643
            72    0       7.278980      5.317660      1.478890    -0.126972   -0.490228   -0.383373
            73    0       3.598420      7.087790      9.949970     0.470261    0.082993   -0.922895
            74    0       7.788980      2.407510      3.926830     1.919433    0.304448   -0.757198
            75    0       8.445740      0.969300      1.655680    -0.259983   -1.860968    1.636839
            76    0       3.592480      3.593210      5.160370    -0.046220    1.597573    0.061238
            77    0       7.063030      0.434810      6.771170     0.906571   -1.689005    0.581412
            78    0       3.181970      3.120790      7.696910     1.416165    0.087045   -0.018079
            79    0       7.211880      5.086360      7.767080     0.055127   -0.331745    0.388038
            80    0       4.524220      3.101380      0.560360    -1.833259    2.348576   -0.983755
            81    0       2.125310      2.835370      9.701740     0.428595    0.648329    0.089442
            82    0       9.651850      0.463870      7.858340     0.270803    1.505728    0.599870
            83    0      10.145330      6.288640      6.952200     0.768177   -0.431900   -2.499884
            84    0       5.495590      2.144990      4.828710    -0.184674    2.519360   -1.299730
            85    0       0.708270      9.401880      9.297810    -2.482168    0.123123    1.168212
            86    0       8.714750      8.929620      2.696210    -0.929432    1.223739   -0.515786
            87    0       7.270370      3.317140      5.890990     1.004819    1.643441   -0.005442
            88    0       1.254530      6.388940     10.175880    -0.095396    0.963634   -0.337178
            89    0       3.508610      1.594570      6.135150     1.662998   -2.709269    0.995908
            90    0       1.695900      1.064710      8.040100     0.795337    0.213986    0.259164
            91    0       7.508960      5.674330      5.650540     1.196872   -0.232110   -0.631507
            92    0       0.062590      7.772690      4.952490    -2.318997    0.543067   -0.452479
            93    0       1.952110      2.553220      1.734610     0.599251    0.277013   -0.251165
            94    0       2.550110      9.762790      5.230880     1.185254   -0.836964    1.143819
            95    0       7.827100      4.705240      3.656010    -0.308034   -1.386187   -1.037131
            96    0       4.022330      0.685070      3.695650     0.655103    1.062665    0.851844
            97    0       8.387460      0.856050      9.674360     0.586483    0.569685   -0.211261
            98    0       6.200310      6.637940      3.392830     0.531438   -1.065699    1.224099
            99    0       0.024750      4.728340      2.529230    -0.373622   -1.010528   -1.052350
           100    0       2.426830      4.750810      1.055300    -0.219077   -1.407709   -0.846662
 Energy
       -416.086352880000
 PlusStress:  xx          yy          zz          yz          xz          xy
       428.22480   441.90592   443.89371    12.64228    19.06921     2.51802
 Feature   EFS_by	VASP
END_CFG

