<?xml version="1.0" encoding="ISO-8859-1"?>
<modeling>
 <generator>
  <i name="program" type="string">vasp </i>
  <i name="version" type="string">5.4.4.18Apr17-6-g9f103f2a35  </i>
  <i name="subversion" type="string">(build Sep 16 2020 16:20:45) complex            parallel </i>
  <i name="platform" type="string">LinuxIFC </i>
  <i name="date" type="string">2021 08 10 </i>
  <i name="time" type="string">00:47:16 </i>
 </generator>
 <incar>
  <i type="string" name="PREC">normal</i>
  <i type="string" name="ALGO"> Very Fast</i>
  <i type="int" name="ISPIN">     2</i>
  <i type="int" name="NELM">    60</i>
  <i type="int" name="NELMIN">     4</i>
  <i name="EDIFF">      0.00001000</i>
  <i type="int" name="ISYM">     0</i>
  <i type="string" name="LREAL"> auto</i>
  <i type="int" name="ISMEAR">     0</i>
  <i name="SIGMA">      0.05000000</i>
  <i type="logical" name="LWAVE"> F  </i>
  <i type="logical" name="LCHARG"> F  </i>
  <v type="int" name="KPOINT_BSE">    -1     0     0     0</v>
  <i type="int" name="NELM">    60</i>
 </incar>
 <structure name="primitive_cell" >
  <crystal>
   <varray name="basis" >
    <v>      10.21149500       0.00000000       0.00000000 </v>
    <v>       0.00000000      10.21149500       0.00000000 </v>
    <v>       0.00000000       0.00000000      10.21149500 </v>
   </varray>
   <i name="volume">   1064.79986425 </i>
   <varray name="rec_basis" >
    <v>       0.09792885       0.00000000       0.00000000 </v>
    <v>       0.00000000       0.09792885       0.00000000 </v>
    <v>       0.00000000       0.00000000       0.09792885 </v>
   </varray>
  </crystal>
  <varray name="positions" >
   <v>       0.01036860       0.19426000       0.04229450 </v>
   <v>       0.02041030       0.41091500       0.02344850 </v>
   <v>      -0.00973000       0.27738800      -0.16053700 </v>
   <v>       0.19116800       0.25003400       0.16986800 </v>
   <v>       0.00651722       0.17642300       0.27304500 </v>
   <v>       0.20812900       0.27766500      -0.04992000 </v>
   <v>      -0.14632600       0.31482400       0.17012500 </v>
   <v>      -0.17862600       0.08383220      -0.05260100 </v>
   <v>      -0.17291800       0.09492280       0.16213900 </v>
   <v>       0.04387420      -0.03149600       0.14067600 </v>
   <v>       0.22464100       0.06328100       0.01377470 </v>
   <v>      -0.20973800       0.37903700      -0.02250500 </v>
   <v>       0.06936010      -0.07928500      -0.08947600 </v>
   <v>       0.16607800       0.10426600      -0.21264200 </v>
   <v>      -0.05480500       0.04542660      -0.23044200 </v>
   <v>       0.22526600       0.04645580       0.23579300 </v>
   <v>       0.00242337       0.46304100       0.24768500 </v>
   <v>      -0.12722600      -0.12932800       0.03365410 </v>
   <v>      -0.22597600       0.23420300      -0.21883000 </v>
   <v>       0.23765700       0.46524100       0.10334400 </v>
   <v>       0.13245200       0.44358800      -0.20348200 </v>
   <v>      -0.36211300       0.20311600       0.06138910 </v>
   <v>      -0.08246300      -0.49125900      -0.13960800 </v>
   <v>       0.20200200       0.40116200       0.32232300 </v>
   <v>      -0.09001500      -0.40146400       0.05956980 </v>
   <v>       0.21014900      -0.17183600       0.08448220 </v>
   <v>      -0.14657500      -0.12553300       0.26403700 </v>
   <v>      -0.02907800      -0.00993300       0.40920800 </v>
   <v>      -0.23723400       0.23576500       0.38455000 </v>
   <v>       0.40517500       0.14257800      -0.10485300 </v>
   <v>       0.01485200       0.30939600       0.45172500 </v>
   <v>       0.31160700       0.30561500      -0.24625000 </v>
   <v>      -0.07658300       0.38698800      -0.34128800 </v>
   <v>       0.20301700       0.18891900       0.43594300 </v>
   <v>      -0.21971100      -0.11196300      -0.17094100 </v>
   <v>       0.12868400       0.28006700      -0.37590000 </v>
   <v>       0.26077100      -0.11530800      -0.15945200 </v>
   <v>       0.44305200       0.30371500       0.05487570 </v>
   <v>       0.12285500      -0.37433800      -0.00348800 </v>
   <v>      -0.37174700       0.32854300       0.23435300 </v>
   <v>      -0.35897700      -0.05494000       0.10524600 </v>
   <v>       0.43972800       0.10518100       0.14404100 </v>
   <v>      -0.39277300       0.05513260      -0.10988600 </v>
   <v>      -0.28717800      -0.47924800       0.14482600 </v>
   <v>       0.34270400       0.47312000      -0.09613400 </v>
   <v>      -0.39929200       0.33606700      -0.11942000 </v>
   <v>      -0.37707000       0.09594580       0.27611600 </v>
   <v>       0.40287300       0.28831200       0.28046100 </v>
   <v>       0.02906940      -0.24858400       0.20040000 </v>
   <v>      -0.23350100       0.46077900       0.35802900 </v>
   <v>       0.07907530       0.07086530      -0.41765900 </v>
   <v>       0.17732900      -0.15388800       0.33229900 </v>
   <v>       0.41417600      -0.07827000       0.00182856 </v>
   <v>      -0.23894700       0.01900010       0.42673500 </v>
   <v>      -0.12706600       0.15449000      -0.43772300 </v>
   <v>      -0.05689000      -0.26571000      -0.14810800 </v>
   <v>       0.08019640      -0.14537700      -0.32437900 </v>
   <v>      -0.29374900       0.49810100      -0.23937900 </v>
   <v>       0.39390200       0.06708810       0.36191100 </v>
   <v>      -0.30832600       0.04258020      -0.33690700 </v>
   <v>       0.39256300      -0.11634300       0.23299300 </v>
   <v>      -0.05476200      -0.47638900       0.45339700 </v>
   <v>      -0.13268400      -0.07421500      -0.39300900 </v>
   <v>       0.13398800      -0.38236100       0.35091900 </v>
   <v>      -0.13682600      -0.34764600       0.29043900 </v>
   <v>      -0.28043600      -0.26026500       0.12054600 </v>
   <v>      -0.26273100      -0.34204400      -0.09023400 </v>
   <v>       0.34359400       0.15615400      -0.39919200 </v>
   <v>       0.28992300      -0.35308600       0.19972600 </v>
   <v>      -0.00647900      -0.38416100      -0.31917900 </v>
   <v>      -0.42708500       0.20807300      -0.30647500 </v>
   <v>       0.43394400      -0.01270600      -0.26034700 </v>
   <v>      -0.28802100       0.32484400      -0.42310200 </v>
   <v>       0.21578200      -0.33400900      -0.21699400 </v>
   <v>       0.24972900      -0.04394100      -0.48774600 </v>
   <v>      -0.39117700      -0.13077600       0.30719800 </v>
   <v>       0.47660900       0.49829200       0.20860700 </v>
   <v>      -0.46379100      -0.47016300      -0.00125500 </v>
   <v>       0.35180700       0.35187900      -0.49465100 </v>
   <v>      -0.42562200      -0.17962500      -0.12180200 </v>
   <v>       0.15599400       0.49732400      -0.45316200 </v>
   <v>       0.35238900      -0.30590100      -0.02561100 </v>
   <v>       0.33233500      -0.45646200      -0.34411200 </v>
   <v>       0.00612933      -0.23882900       0.48499200 </v>
   <v>       0.35457200      -0.43522200       0.41034400 </v>
   <v>      -0.22409000      -0.27723100      -0.31588800 </v>
   <v>      -0.46182300       0.21005600       0.47287000 </v>
   <v>      -0.22830700      -0.22796400       0.45876800 </v>
   <v>      -0.44182200       0.43497900       0.43315500 </v>
   <v>      -0.48867700       0.40900300      -0.31590100 </v>
   <v>       0.37600500      -0.20428900      -0.34678900 </v>
   <v>      -0.26465600      -0.44431900      -0.44664900 </v>
   <v>      -0.39281100      -0.34995400       0.33225600 </v>
   <v>      -0.45284700       0.00463347       0.49680700 </v>
   <v>      -0.41932300      -0.16329900      -0.35876500 </v>
   <v>      -0.49235600      -0.27410600       0.14341900 </v>
   <v>       0.42874600      -0.20913500       0.43280700 </v>
   <v>      -0.48835800      -0.36327900      -0.19006200 </v>
   <v>       0.21195800      -0.28375700      -0.47559100 </v>
   <v>      -0.46631200      -0.36332900      -0.44111400 </v>
  </varray>
 </structure>
 <varray name="primitive_index" >
  <v type="int" >        1 </v>
  <v type="int" >       41 </v>
  <v type="int" >       53 </v>
  <v type="int" >       93 </v>
  <v type="int" >       68 </v>
  <v type="int" >       81 </v>
  <v type="int" >        9 </v>
  <v type="int" >       97 </v>
  <v type="int" >       75 </v>
  <v type="int" >       31 </v>
  <v type="int" >       54 </v>
  <v type="int" >        8 </v>
  <v type="int" >       85 </v>
  <v type="int" >       90 </v>
  <v type="int" >       82 </v>
  <v type="int" >       40 </v>
  <v type="int" >       99 </v>
  <v type="int" >       15 </v>
  <v type="int" >       55 </v>
  <v type="int" >      100 </v>
  <v type="int" >       51 </v>
  <v type="int" >       57 </v>
  <v type="int" >       24 </v>
  <v type="int" >        4 </v>
  <v type="int" >       19 </v>
  <v type="int" >       16 </v>
  <v type="int" >       86 </v>
  <v type="int" >       64 </v>
  <v type="int" >       74 </v>
  <v type="int" >       29 </v>
  <v type="int" >       50 </v>
  <v type="int" >       78 </v>
  <v type="int" >       38 </v>
  <v type="int" >        5 </v>
  <v type="int" >       28 </v>
  <v type="int" >       56 </v>
  <v type="int" >       67 </v>
  <v type="int" >       80 </v>
  <v type="int" >       88 </v>
  <v type="int" >        6 </v>
  <v type="int" >       14 </v>
  <v type="int" >       46 </v>
  <v type="int" >       18 </v>
  <v type="int" >       72 </v>
  <v type="int" >       66 </v>
  <v type="int" >       61 </v>
  <v type="int" >       20 </v>
  <v type="int" >       12 </v>
  <v type="int" >       21 </v>
  <v type="int" >       95 </v>
  <v type="int" >       59 </v>
  <v type="int" >       33 </v>
  <v type="int" >       32 </v>
  <v type="int" >       13 </v>
  <v type="int" >       71 </v>
  <v type="int" >       62 </v>
  <v type="int" >       17 </v>
  <v type="int" >       79 </v>
  <v type="int" >       96 </v>
  <v type="int" >       77 </v>
  <v type="int" >       65 </v>
  <v type="int" >       10 </v>
  <v type="int" >       23 </v>
  <v type="int" >       58 </v>
  <v type="int" >       11 </v>
  <v type="int" >       26 </v>
  <v type="int" >       44 </v>
  <v type="int" >       89 </v>
  <v type="int" >       45 </v>
  <v type="int" >       83 </v>
  <v type="int" >       35 </v>
  <v type="int" >       63 </v>
  <v type="int" >       87 </v>
  <v type="int" >       48 </v>
  <v type="int" >       94 </v>
  <v type="int" >       34 </v>
  <v type="int" >       49 </v>
  <v type="int" >       39 </v>
  <v type="int" >       76 </v>
  <v type="int" >        3 </v>
  <v type="int" >       37 </v>
  <v type="int" >       73 </v>
  <v type="int" >       42 </v>
  <v type="int" >       92 </v>
  <v type="int" >       52 </v>
  <v type="int" >       60 </v>
  <v type="int" >       84 </v>
  <v type="int" >       43 </v>
  <v type="int" >        7 </v>
  <v type="int" >       36 </v>
  <v type="int" >       30 </v>
  <v type="int" >       91 </v>
  <v type="int" >       98 </v>
  <v type="int" >       69 </v>
  <v type="int" >       25 </v>
  <v type="int" >       70 </v>
  <v type="int" >       47 </v>
  <v type="int" >       22 </v>
  <v type="int" >        2 </v>
  <v type="int" >       27 </v>
 </varray>
 <kpoints>
  <generation param="Gamma">
   <v type="int" name="divisions">       1        1        1 </v>
   <v name="usershift">      0.00000000       0.00000000       0.00000000 </v>
   <v name="genvec1">      1.00000000       0.00000000       0.00000000 </v>
   <v name="genvec2">      0.00000000       1.00000000       0.00000000 </v>
   <v name="genvec3">      0.00000000       0.00000000       1.00000000 </v>
   <v name="shift">      0.00000000       0.00000000       0.00000000 </v>
  </generation>
  <varray name="kpointlist" >
   <v>       0.00000000       0.00000000       0.00000000 </v>
  </varray>
  <varray name="weights" >
   <v>       1.00000000 </v>
  </varray>
 </kpoints>
 <parameters>
  <separator name="general" >
   <i type="string" name="SYSTEM">unknown system</i>
   <i type="logical" name="LCOMPAT"> F  </i>
  </separator>
  <separator name="electronic" >
   <i type="string" name="PREC">normal</i>
   <i name="ENMAX">    245.34500000</i>
   <i name="ENAUG">    322.06900000</i>
   <i name="EDIFF">      0.00001000</i>
   <i type="int" name="IALGO">    48</i>
   <i type="int" name="IWAVPR">    10</i>
   <i type="int" name="NBANDS">   304</i>
   <i name="NELECT">    400.00000000</i>
   <i type="int" name="TURBO">     0</i>
   <i type="int" name="IRESTART">     0</i>
   <i type="int" name="NREBOOT">     0</i>
   <i type="int" name="NMIN">     0</i>
   <i name="EREF">      0.00000000</i>
   <separator name="electronic smearing" >
    <i type="int" name="ISMEAR">     0</i>
    <i name="SIGMA">      0.05000000</i>
    <i name="KSPACING">      0.50000000</i>
    <i type="logical" name="KGAMMA"> T  </i>
   </separator>
   <separator name="electronic projectors" >
    <i type="logical" name="LREAL"> T  </i>
    <v name="ROPT">     -0.00050000</v>
    <i type="int" name="LMAXPAW">  -100</i>
    <i type="int" name="LMAXMIX">     2</i>
    <i type="logical" name="NLSPLINE"> F  </i>
   </separator>
   <separator name="electronic startup" >
    <i type="int" name="ISTART">     0</i>
    <i type="int" name="ICHARG">     2</i>
    <i type="int" name="INIWAV">     1</i>
   </separator>
   <separator name="electronic spin" >
    <i type="int" name="ISPIN">     2</i>
    <i type="logical" name="LNONCOLLINEAR"> F  </i>
    <v name="MAGMOM">      1.00000000      1.00000000      1.00000000      1.00000000      1.00000000      1.00000000      1.00000000      1.00000000      1.00000000      1.00000000      1.00000000      1.00000000      1.00000000      1.00000000      1.00000000      1.00000000      1.00000000      1.00000000      1.00000000      1.00000000
      1.00000000      1.00000000      1.00000000      1.00000000      1.00000000      1.00000000      1.00000000      1.00000000      1.00000000      1.00000000      1.00000000      1.00000000      1.00000000      1.00000000      1.00000000      1.00000000      1.00000000      1.00000000      1.00000000      1.00000000
      1.00000000      1.00000000      1.00000000      1.00000000      1.00000000      1.00000000      1.00000000      1.00000000      1.00000000      1.00000000      1.00000000      1.00000000      1.00000000      1.00000000      1.00000000      1.00000000      1.00000000      1.00000000      1.00000000      1.00000000
      1.00000000      1.00000000      1.00000000      1.00000000      1.00000000      1.00000000      1.00000000      1.00000000      1.00000000      1.00000000      1.00000000      1.00000000      1.00000000      1.00000000      1.00000000      1.00000000      1.00000000      1.00000000      1.00000000      1.00000000
      1.00000000      1.00000000      1.00000000      1.00000000      1.00000000      1.00000000      1.00000000      1.00000000      1.00000000      1.00000000      1.00000000      1.00000000      1.00000000      1.00000000      1.00000000      1.00000000      1.00000000      1.00000000      1.00000000      1.00000000
</v>
    <i name="NUPDOWN">     -1.00000000</i>
    <i type="logical" name="LSORBIT"> F  </i>
    <v name="SAXIS">      0.00000000      0.00000000      1.00000000</v>
    <i type="logical" name="LSPIRAL"> F  </i>
    <v name="QSPIRAL">      0.00000000      0.00000000      0.00000000</v>
    <i type="logical" name="LZEROZ"> F  </i>
   </separator>
   <separator name="electronic exchange-correlation" >
    <i type="logical" name="LASPH"> F  </i>
    <i type="logical" name="LMETAGGA"> F  </i>
   </separator>
   <separator name="electronic convergence" >
    <i type="int" name="NELM">    60</i>
    <i type="int" name="NELMDL">   -12</i>
    <i type="int" name="NELMIN">     4</i>
    <i name="ENINI">    245.34500000</i>
    <separator name="electronic convergence detail" >
     <i type="logical" name="LDIAG"> T  </i>
     <i type="logical" name="LSUBROT"> F  </i>
     <i name="WEIMIN">      0.00000000</i>
     <i name="EBREAK">      0.00000001</i>
     <i name="DEPER">      0.30000000</i>
     <i type="int" name="NRMM">     4</i>
     <i name="TIME">      0.40000000</i>
    </separator>
   </separator>
   <separator name="electronic mixer" >
    <i name="AMIX">      0.40000000</i>
    <i name="BMIX">      1.00000000</i>
    <i name="AMIN">      0.10000000</i>
    <i name="AMIX_MAG">      1.60000000</i>
    <i name="BMIX_MAG">      1.00000000</i>
    <separator name="electronic mixer details" >
     <i type="int" name="IMIX">     4</i>
     <i type="logical" name="MIXFIRST"> F  </i>
     <i type="int" name="MAXMIX">   -45</i>
     <i name="WC">    100.00000000</i>
     <i type="int" name="INIMIX">     1</i>
     <i type="int" name="MIXPRE">     1</i>
     <i type="int" name="MREMOVE">     5</i>
    </separator>
   </separator>
   <separator name="electronic dipolcorrection" >
    <i type="logical" name="LDIPOL"> F  </i>
    <i type="logical" name="LMONO"> F  </i>
    <i type="int" name="IDIPOL">     0</i>
    <i name="EPSILON">      1.00000000</i>
    <v name="DIPOL">   -100.00000000   -100.00000000   -100.00000000</v>
    <i name="EFIELD">      0.00000000</i>
   </separator>
  </separator>
  <separator name="grids" >
   <i type="int" name="NGX">    40</i>
   <i type="int" name="NGY">    40</i>
   <i type="int" name="NGZ">    40</i>
   <i type="int" name="NGXF">    80</i>
   <i type="int" name="NGYF">    80</i>
   <i type="int" name="NGZF">    80</i>
   <i type="logical" name="ADDGRID"> F  </i>
  </separator>
  <separator name="ionic" >
   <i type="int" name="NSW">     0</i>
   <i type="int" name="IBRION">    -1</i>
   <i type="int" name="MDALGO">     0</i>
   <i type="int" name="ISIF">     2</i>
   <i name="PSTRESS">      0.00000000</i>
   <i name="EDIFFG">      0.00010000</i>
   <i type="int" name="NFREE">     0</i>
   <i name="POTIM">      0.50000000</i>
   <i name="SMASS">     -3.00000000</i>
   <i name="SCALEE">      1.00000000</i>
  </separator>
  <separator name="ionic md" >
   <i name="TEBEG">      0.00010000</i>
   <i name="TEEND">      0.00010000</i>
   <i type="int" name="NBLOCK">     1</i>
   <i type="int" name="KBLOCK">     1</i>
   <i type="int" name="NPACO">   256</i>
   <i name="APACO">     16.00000000</i>
  </separator>
  <separator name="symmetry" >
   <i type="int" name="ISYM">     0</i>
   <i name="SYMPREC">      0.00001000</i>
  </separator>
  <separator name="dos" >
   <i type="int" name="LORBIT">     0</i>
   <v name="RWIGS">     -1.00000000</v>
   <i type="int" name="NEDOS">   301</i>
   <i name="EMIN">     10.00000000</i>
   <i name="EMAX">    -10.00000000</i>
   <i name="EFERMI">      0.00000000</i>
  </separator>
  <separator name="writing" >
   <i type="int" name="NWRITE">     2</i>
   <i type="logical" name="LWAVE"> F  </i>
   <i type="logical" name="LDOWNSAMPLE"> F  </i>
   <i type="logical" name="LCHARG"> F  </i>
   <i type="logical" name="LPARD"> F  </i>
   <i type="logical" name="LVTOT"> F  </i>
   <i type="logical" name="LVHAR"> F  </i>
   <i type="logical" name="LELF"> F  </i>
   <i type="logical" name="LOPTICS"> F  </i>
   <v name="STM">      0.00000000      0.00000000      0.00000000      0.00000000      0.00000000      0.00000000      0.00000000</v>
  </separator>
  <separator name="performance" >
   <i type="int" name="NPAR">    16</i>
   <i type="int" name="NSIM">     4</i>
   <i type="int" name="NBLK">    -1</i>
   <i type="logical" name="LPLANE"> T  </i>
   <i type="logical" name="LSCALAPACK"> T  </i>
   <i type="logical" name="LSCAAWARE"> F  </i>
   <i type="logical" name="LSCALU"> F  </i>
   <i type="logical" name="LASYNC"> F  </i>
   <i type="logical" name="LORBITALREAL"> F  </i>
  </separator>
  <separator name="miscellaneous" >
   <i type="int" name="IDIOT">     3</i>
   <i type="int" name="ISPECIAL">     0</i>
   <i type="logical" name="LMUSIC"> F  </i>
   <v name="POMASS">     28.08500000</v>
   <v name="DARWINR">      0.00000000</v>
   <v name="DARWINV">      1.00000000</v>
   <i type="logical" name="LCORR"> T  </i>
  </separator>
  <i type="logical" name="GGA_COMPAT"> T  </i>
  <i type="logical" name="LBERRY"> F  </i>
  <i type="int" name="ICORELEVEL">     0</i>
  <i type="logical" name="LDAU"> F  </i>
  <i type="int" name="I_CONSTRAINED_M">     0</i>
  <separator name="electronic exchange-correlation" >
   <i type="string" name="GGA">--</i>
   <i type="int" name="VOSKOWN">     0</i>
   <i type="logical" name="LHFCALC"> F  </i>
   <i type="string" name="PRECFOCK"></i>
   <i type="logical" name="LSYMGRAD"> F  </i>
   <i type="logical" name="LHFONE"> F  </i>
   <i type="logical" name="LRHFCALC"> F  </i>
   <i type="logical" name="LTHOMAS"> F  </i>
   <i type="logical" name="LMODELHF"> F  </i>
   <i name="ENCUT4O">     -1.00000000</i>
   <i type="int" name="EXXOEP">     0</i>
   <i type="int" name="FOURORBIT">     0</i>
   <i name="AEXX">      0.00000000</i>
   <i name="HFALPHA">      0.00000000</i>
   <i name="MCALPHA">      0.00000000</i>
   <i name="ALDAX">      1.00000000</i>
   <i name="AGGAX">      1.00000000</i>
   <i name="ALDAC">      1.00000000</i>
   <i name="AGGAC">      1.00000000</i>
   <i type="int" name="NKREDX">     1</i>
   <i type="int" name="NKREDY">     1</i>
   <i type="int" name="NKREDZ">     1</i>
   <i type="logical" name="SHIFTRED"> F  </i>
   <i type="logical" name="ODDONLY"> F  </i>
   <i type="logical" name="EVENONLY"> F  </i>
   <i type="int" name="LMAXFOCK">     0</i>
   <i type="int" name="NMAXFOCKAE">     0</i>
   <i type="logical" name="LFOCKAEDFT"> F  </i>
   <i name="HFSCREEN">      0.00000000</i>
   <i name="HFSCREENC">      0.00000000</i>
   <i type="int" name="NBANDSGWLOW">     0</i>
  </separator>
  <separator name="vdW DFT" >
   <i type="logical" name="LUSE_VDW"> F  </i>
   <i name="Zab_VDW">     -0.84910000</i>
   <i name="PARAM1">      0.12340000</i>
   <i name="PARAM2">      1.00000000</i>
   <i name="PARAM3">      0.00000000</i>
  </separator>
  <separator name="model GW" >
   <i type="int" name="MODEL_GW">     0</i>
   <i name="MODEL_EPS0">      6.38879919</i>
   <i name="MODEL_ALPHA">      1.00000000</i>
  </separator>
  <separator name="linear response parameters" >
   <i type="logical" name="LEPSILON"> F  </i>
   <i type="logical" name="LRPA"> F  </i>
   <i type="logical" name="LNABLA"> F  </i>
   <i type="logical" name="LVEL"> F  </i>
   <i type="int" name="KINTER">     0</i>
   <i name="CSHIFT">      0.10000000</i>
   <i name="OMEGAMAX">     -1.00000000</i>
   <i name="DEG_THRESHOLD">      0.00200000</i>
   <i name="RTIME">     -0.10000000</i>
   <i name="WPLASMAI">      0.00000000</i>
   <v name="DFIELD">      0.00000000      0.00000000      0.00000000</v>
   <v name="WPLASMA">      0.00000000      0.00000000      0.00000000      0.00000000      0.00000000      0.00000000      0.00000000      0.00000000      0.00000000</v>
  </separator>
  <separator name="orbital magnetization" >
   <i type="logical" name="NUCIND"> F  </i>
   <v name="MAGPOS">      0.00000000      0.00000000      0.00000000</v>
   <i type="logical" name="LNICSALL"> T  </i>
   <i type="logical" name="ORBITALMAG"> F  </i>
   <i type="logical" name="LMAGBLOCH"> F  </i>
   <i type="logical" name="LCHIMAG"> F  </i>
   <i type="logical" name="LGAUGE"> T  </i>
   <i type="int" name="MAGATOM">     0</i>
   <v name="MAGDIPOL">      0.00000000      0.00000000      0.00000000</v>
   <v name="AVECCONST">      0.00000000      0.00000000      0.00000000</v>
  </separator>
  <separator name="response functions" >
   <i type="logical" name="LADDER"> F  </i>
   <i type="logical" name="LRPAFORCE"> F  </i>
   <i type="logical" name="LFXC"> F  </i>
   <i type="logical" name="LHARTREE"> T  </i>
   <i type="int" name="IBSE">     0</i>
   <v type="int" name="KPOINT">    -1     0     0     0</v>
   <i type="logical" name="LTCTE"> F  </i>
   <i type="logical" name="LTETE"> F  </i>
   <i type="logical" name="LTRIPLET"> F  </i>
   <i type="logical" name="LFXCEPS"> F  </i>
   <i type="logical" name="LFXHEG"> F  </i>
   <i type="int" name="NATURALO">     2</i>
   <i type="logical" name="L2ORDER"> F  </i>
   <i type="logical" name="LMP2LT"> F  </i>
   <i type="logical" name="LUSEW"> F  </i>
   <i name="ENCUTGW">     -2.00000000</i>
   <i name="ENCUTGWSOFT">     -2.00000000</i>
   <i name="ENCUTLF">     -1.00000000</i>
   <i type="int" name="LMAXMP2">    -1</i>
   <i name="SCISSOR">      0.00000000</i>
   <i type="int" name="NOMEGA">     0</i>
   <i type="int" name="NOMEGAR">     0</i>
   <i type="int" name="NBANDSGW">    -1</i>
   <i type="int" name="NBANDSO">    -1</i>
   <i type="int" name="NBANDSV">    -1</i>
   <i type="int" name="NELM">    60</i>
   <i type="int" name="NELMHF">     1</i>
   <i type="int" name="DIM">     3</i>
   <i type="int" name="ANTIRES">     0</i>
   <i name="OMEGAMAX">    -30.00000000</i>
   <i name="OMEGAMIN">    -30.00000000</i>
   <i name="OMEGATL">   -200.00000000</i>
   <i type="int" name="OMEGAGRID">   140</i>
   <i name="CSHIFT">     -0.10000000</i>
   <i type="logical" name="SELFENERGY"> F  </i>
   <i type="logical" name="LSPECTRAL"> F  </i>
   <i type="logical" name="LSPECTRALGW"> F  </i>
   <i type="logical" name="LSINGLES"> F  </i>
   <i type="logical" name="LFERMIGW"> F  </i>
   <i type="logical" name="ODDONLYGW"> F  </i>
   <i type="logical" name="EVENONLYGW"> F  </i>
   <i type="int" name="NKREDLFX">     1</i>
   <i type="int" name="NKREDLFY">     1</i>
   <i type="int" name="NKREDLFZ">     1</i>
   <i type="int" name="MAXMEM">  2800</i>
   <i type="int" name="TELESCOPE">     0</i>
   <i type="int" name="TAUPAR">     1</i>
   <i type="int" name="OMEGAPAR">    -1</i>
   <i name="LAMBDA">      1.00000000</i>
  </separator>
  <separator name="External order field" >
   <i name="OFIELD_KAPPA">      0.00000000</i>
   <v name="OFIELD_K">      0.00000000      0.00000000      0.00000000</v>
   <i name="OFIELD_Q6_NEAR">      0.00000000</i>
   <i name="OFIELD_Q6_FAR">      0.00000000</i>
   <i name="OFIELD_A">      0.00000000</i>
  </separator>
 </parameters>
 <atominfo>
  <atoms>     100 </atoms>
  <types>       1 </types>
  <array name="atoms" >
   <dimension dim="1">ion</dimension>
   <field type="string">element</field>
   <field type="int">atomtype</field>
   <set>
    <rc><c>Si</c><c>   1</c></rc>
    <rc><c>Si</c><c>   1</c></rc>
    <rc><c>Si</c><c>   1</c></rc>
    <rc><c>Si</c><c>   1</c></rc>
    <rc><c>Si</c><c>   1</c></rc>
    <rc><c>Si</c><c>   1</c></rc>
    <rc><c>Si</c><c>   1</c></rc>
    <rc><c>Si</c><c>   1</c></rc>
    <rc><c>Si</c><c>   1</c></rc>
    <rc><c>Si</c><c>   1</c></rc>
    <rc><c>Si</c><c>   1</c></rc>
    <rc><c>Si</c><c>   1</c></rc>
    <rc><c>Si</c><c>   1</c></rc>
    <rc><c>Si</c><c>   1</c></rc>
    <rc><c>Si</c><c>   1</c></rc>
    <rc><c>Si</c><c>   1</c></rc>
    <rc><c>Si</c><c>   1</c></rc>
    <rc><c>Si</c><c>   1</c></rc>
    <rc><c>Si</c><c>   1</c></rc>
    <rc><c>Si</c><c>   1</c></rc>
    <rc><c>Si</c><c>   1</c></rc>
    <rc><c>Si</c><c>   1</c></rc>
    <rc><c>Si</c><c>   1</c></rc>
    <rc><c>Si</c><c>   1</c></rc>
    <rc><c>Si</c><c>   1</c></rc>
    <rc><c>Si</c><c>   1</c></rc>
    <rc><c>Si</c><c>   1</c></rc>
    <rc><c>Si</c><c>   1</c></rc>
    <rc><c>Si</c><c>   1</c></rc>
    <rc><c>Si</c><c>   1</c></rc>
    <rc><c>Si</c><c>   1</c></rc>
    <rc><c>Si</c><c>   1</c></rc>
    <rc><c>Si</c><c>   1</c></rc>
    <rc><c>Si</c><c>   1</c></rc>
    <rc><c>Si</c><c>   1</c></rc>
    <rc><c>Si</c><c>   1</c></rc>
    <rc><c>Si</c><c>   1</c></rc>
    <rc><c>Si</c><c>   1</c></rc>
    <rc><c>Si</c><c>   1</c></rc>
    <rc><c>Si</c><c>   1</c></rc>
    <rc><c>Si</c><c>   1</c></rc>
    <rc><c>Si</c><c>   1</c></rc>
    <rc><c>Si</c><c>   1</c></rc>
    <rc><c>Si</c><c>   1</c></rc>
    <rc><c>Si</c><c>   1</c></rc>
    <rc><c>Si</c><c>   1</c></rc>
    <rc><c>Si</c><c>   1</c></rc>
    <rc><c>Si</c><c>   1</c></rc>
    <rc><c>Si</c><c>   1</c></rc>
    <rc><c>Si</c><c>   1</c></rc>
    <rc><c>Si</c><c>   1</c></rc>
    <rc><c>Si</c><c>   1</c></rc>
    <rc><c>Si</c><c>   1</c></rc>
    <rc><c>Si</c><c>   1</c></rc>
    <rc><c>Si</c><c>   1</c></rc>
    <rc><c>Si</c><c>   1</c></rc>
    <rc><c>Si</c><c>   1</c></rc>
    <rc><c>Si</c><c>   1</c></rc>
    <rc><c>Si</c><c>   1</c></rc>
    <rc><c>Si</c><c>   1</c></rc>
    <rc><c>Si</c><c>   1</c></rc>
    <rc><c>Si</c><c>   1</c></rc>
    <rc><c>Si</c><c>   1</c></rc>
    <rc><c>Si</c><c>   1</c></rc>
    <rc><c>Si</c><c>   1</c></rc>
    <rc><c>Si</c><c>   1</c></rc>
    <rc><c>Si</c><c>   1</c></rc>
    <rc><c>Si</c><c>   1</c></rc>
    <rc><c>Si</c><c>   1</c></rc>
    <rc><c>Si</c><c>   1</c></rc>
    <rc><c>Si</c><c>   1</c></rc>
    <rc><c>Si</c><c>   1</c></rc>
    <rc><c>Si</c><c>   1</c></rc>
    <rc><c>Si</c><c>   1</c></rc>
    <rc><c>Si</c><c>   1</c></rc>
    <rc><c>Si</c><c>   1</c></rc>
    <rc><c>Si</c><c>   1</c></rc>
    <rc><c>Si</c><c>   1</c></rc>
    <rc><c>Si</c><c>   1</c></rc>
    <rc><c>Si</c><c>   1</c></rc>
    <rc><c>Si</c><c>   1</c></rc>
    <rc><c>Si</c><c>   1</c></rc>
    <rc><c>Si</c><c>   1</c></rc>
    <rc><c>Si</c><c>   1</c></rc>
    <rc><c>Si</c><c>   1</c></rc>
    <rc><c>Si</c><c>   1</c></rc>
    <rc><c>Si</c><c>   1</c></rc>
    <rc><c>Si</c><c>   1</c></rc>
    <rc><c>Si</c><c>   1</c></rc>
    <rc><c>Si</c><c>   1</c></rc>
    <rc><c>Si</c><c>   1</c></rc>
    <rc><c>Si</c><c>   1</c></rc>
    <rc><c>Si</c><c>   1</c></rc>
    <rc><c>Si</c><c>   1</c></rc>
    <rc><c>Si</c><c>   1</c></rc>
    <rc><c>Si</c><c>   1</c></rc>
    <rc><c>Si</c><c>   1</c></rc>
    <rc><c>Si</c><c>   1</c></rc>
    <rc><c>Si</c><c>   1</c></rc>
    <rc><c>Si</c><c>   1</c></rc>
   </set>
  </array>
  <array name="atomtypes" >
   <dimension dim="1">type</dimension>
   <field type="int">atomspertype</field>
   <field type="string">element</field>
   <field>mass</field>
   <field>valence</field>
   <field type="string">pseudopotential</field>
   <set>
    <rc><c> 100</c><c>Si</c><c>     28.08500000</c><c>      4.00000000</c><c>  PAW_PBE Si 05Jan2001                  </c></rc>
   </set>
  </array>
 </atominfo>
 <structure name="initialpos" >
  <crystal>
   <varray name="basis" >
    <v>      10.21149500       0.00000000       0.00000000 </v>
    <v>       0.00000000      10.21149500       0.00000000 </v>
    <v>       0.00000000       0.00000000      10.21149500 </v>
   </varray>
   <i name="volume">   1064.79986425 </i>
   <varray name="rec_basis" >
    <v>       0.09792885       0.00000000       0.00000000 </v>
    <v>       0.00000000       0.09792885       0.00000000 </v>
    <v>       0.00000000       0.00000000       0.09792885 </v>
   </varray>
  </crystal>
  <varray name="positions" >
   <v>       0.01036860       0.19426000       0.04229450 </v>
   <v>       0.21195800       0.71624300       0.52440900 </v>
   <v>       0.57437800       0.82037500       0.87819800 </v>
   <v>       0.20200200       0.40116200       0.32232300 </v>
   <v>       0.20301700       0.18891900       0.43594300 </v>
   <v>       0.62825300       0.32854300       0.23435300 </v>
   <v>       0.55817800       0.43497900       0.43315500 </v>
   <v>       0.79026200       0.37903700       0.97749500 </v>
   <v>       0.85367400       0.31482400       0.17012500 </v>
   <v>       0.94523800       0.52361100       0.45339700 </v>
   <v>       0.86317400       0.65235400       0.29043900 </v>
   <v>       0.40287300       0.28831200       0.28046100 </v>
   <v>       0.76105300       0.01900010       0.42673500 </v>
   <v>       0.64102300       0.94506000       0.10524600 </v>
   <v>       0.87277400       0.87067200       0.03365410 </v>
   <v>       0.21014900       0.82816400       0.08448220 </v>
   <v>       0.08019640       0.85462300       0.67562100 </v>
   <v>       0.60722700       0.05513260       0.89011400 </v>
   <v>       0.90998500       0.59853600       0.05956980 </v>
   <v>       0.62293000       0.09594580       0.27611600 </v>
   <v>       0.02906940       0.75141600       0.20040000 </v>
   <v>       0.51164200       0.63672100       0.80993800 </v>
   <v>       0.86731600       0.92578500       0.60699100 </v>
   <v>       0.91753700       0.50874100       0.86039200 </v>
   <v>       0.58067700       0.83670100       0.64123500 </v>
   <v>       0.71956400       0.73973500       0.12054600 </v>
   <v>       0.53368800       0.63667100       0.55888600 </v>
   <v>       0.78028900       0.88803700       0.82905900 </v>
   <v>       0.40517500       0.14257800       0.89514700 </v>
   <v>       0.37600500       0.79571100       0.65321100 </v>
   <v>       0.04387420       0.96850400       0.14067600 </v>
   <v>       0.41417600       0.92173000       0.00182856 </v>
   <v>       0.17732900       0.84611200       0.33229900 </v>
   <v>       0.60882300       0.86922400       0.30719800 </v>
   <v>       0.57291500       0.20807300       0.69352500 </v>
   <v>       0.51132300       0.40900300       0.68409900 </v>
   <v>       0.15599400       0.49732400       0.54683800 </v>
   <v>       0.92341700       0.38698800       0.65871200 </v>
   <v>       0.53620900       0.52983700       0.99874500 </v>
   <v>       0.22526600       0.04645580       0.23579300 </v>
   <v>       0.02041030       0.41091500       0.02344850 </v>
   <v>       0.33233500       0.54353800       0.65588800 </v>
   <v>       0.77169300       0.77203600       0.45876800 </v>
   <v>       0.73726900       0.65795600       0.90976600 </v>
   <v>       0.28992300       0.64691400       0.19972600 </v>
   <v>       0.43972800       0.10518100       0.14404100 </v>
   <v>       0.42874600       0.79086500       0.43280700 </v>
   <v>       0.21578200       0.66599100       0.78300600 </v>
   <v>       0.47660900       0.49829200       0.20860700 </v>
   <v>       0.01485200       0.30939600       0.45172500 </v>
   <v>       0.13245200       0.44358800       0.79651800 </v>
   <v>       0.35457200       0.56477800       0.41034400 </v>
   <v>       0.99027000       0.27738800       0.83946300 </v>
   <v>       0.22464100       0.06328100       0.01377470 </v>
   <v>       0.77402400       0.23420300       0.78117000 </v>
   <v>       0.12868400       0.28006700       0.62410000 </v>
   <v>       0.63788700       0.20311600       0.06138910 </v>
   <v>       0.13398800       0.61763900       0.35091900 </v>
   <v>       0.07907530       0.07086530       0.58234100 </v>
   <v>       0.77591000       0.72276900       0.68411200 </v>
   <v>       0.60070800       0.33606700       0.88058000 </v>
   <v>       0.94311000       0.73429000       0.85189200 </v>
   <v>       0.43394400       0.98729400       0.73965300 </v>
   <v>       0.97092200       0.99006700       0.40920800 </v>
   <v>       0.39256300       0.88365700       0.23299300 </v>
   <v>       0.34270400       0.47312000       0.90386600 </v>
   <v>       0.26077100       0.88469200       0.84054800 </v>
   <v>       0.00651722       0.17642300       0.27304500 </v>
   <v>       0.54715300       0.00463347       0.49680700 </v>
   <v>       0.50764400       0.72589400       0.14341900 </v>
   <v>       0.87293400       0.15449000       0.56227700 </v>
   <v>       0.71282200       0.52075200       0.14482600 </v>
   <v>       0.35238900       0.69409900       0.97438900 </v>
   <v>       0.76276600       0.23576500       0.38455000 </v>
   <v>       0.82708200       0.09492280       0.16213900 </v>
   <v>       0.35180700       0.35187900       0.50534900 </v>
   <v>       0.69167400       0.04258020       0.66309300 </v>
   <v>       0.31160700       0.30561500       0.75375000 </v>
   <v>       0.70625100       0.49810100       0.76062100 </v>
   <v>       0.44305200       0.30371500       0.05487570 </v>
   <v>       0.20812900       0.27766500       0.95008000 </v>
   <v>       0.94519500       0.04542660       0.76955800 </v>
   <v>       0.99352100       0.61583900       0.68082100 </v>
   <v>       0.53817700       0.21005600       0.47287000 </v>
   <v>       0.06936010       0.92071500       0.91052400 </v>
   <v>       0.85342500       0.87446700       0.26403700 </v>
   <v>       0.71197900       0.32484400       0.57689800 </v>
   <v>       0.12285500       0.62566200       0.99651200 </v>
   <v>       0.34359400       0.15615400       0.60080800 </v>
   <v>       0.16607800       0.10426600       0.78735800 </v>
   <v>       0.73534400       0.55568100       0.55335100 </v>
   <v>       0.00612933       0.76117100       0.48499200 </v>
   <v>       0.19116800       0.25003400       0.16986800 </v>
   <v>       0.24972900       0.95605900       0.51225400 </v>
   <v>       0.76649900       0.46077900       0.35802900 </v>
   <v>       0.39390200       0.06708810       0.36191100 </v>
   <v>       0.82137400       0.08383220       0.94739900 </v>
   <v>       0.60718900       0.65004600       0.33225600 </v>
   <v>       0.00242337       0.46304100       0.24768500 </v>
   <v>       0.23765700       0.46524100       0.10334400 </v>
  </varray>
 </structure>
 <calculation>
  <scstep>
   <time name="diag">    0.35    0.35</time>
   <time name="diis">    0.43    0.44</time>
   <time name="orth">    0.10    0.10</time>
   <time name="total">    0.97    1.07</time>
   <energy>
    <i name="alphaZ">    316.14514549 </i>
    <i name="ewald"> -14950.96582243 </i>
    <i name="hartreedc">    -80.57855695 </i>
    <i name="XCdc">   -777.71521839 </i>
    <i name="pawpsdc">   8803.41707833 </i>
    <i name="pawaedc">  -7043.47671478 </i>
    <i name="eentropy">     -0.01073599 </i>
    <i name="bandstr">   4804.37368917 </i>
    <i name="atom">  10306.12861560 </i>
    <i name="e_fr_energy">   1377.31748004 </i>
    <i name="e_wo_entrp">   1377.32821603 </i>
    <i name="e_0_energy">   1377.32284803 </i>
   </energy>
  </scstep>
  <scstep>
   <time name="diag">    0.34    0.34</time>
   <time name="diis">    0.44    0.45</time>
   <time name="orth">    0.10    0.10</time>
   <time name="total">    0.88    0.89</time>
   <energy>
    <i name="e_fr_energy">      4.74553073 </i>
    <i name="e_wo_entrp">      4.79271489 </i>
    <i name="e_0_energy">      4.76912281 </i>
   </energy>
  </scstep>
  <scstep>
   <time name="diag">    0.34    0.34</time>
   <time name="diis">    0.44    0.45</time>
   <time name="orth">    0.10    0.10</time>
   <time name="total">    0.88    0.88</time>
   <energy>
    <i name="e_fr_energy">   -282.86377283 </i>
    <i name="e_wo_entrp">   -282.81116605 </i>
    <i name="e_0_energy">   -282.83746944 </i>
   </energy>
  </scstep>
  <scstep>
   <time name="diag">    0.34    0.34</time>
   <time name="diis">    0.44    0.44</time>
   <time name="orth">    0.10    0.10</time>
   <time name="total">    0.87    0.88</time>
   <energy>
    <i name="e_fr_energy">   -361.17139473 </i>
    <i name="e_wo_entrp">   -361.11981506 </i>
    <i name="e_0_energy">   -361.14560490 </i>
   </energy>
  </scstep>
  <scstep>
   <time name="diag">    0.34    0.34</time>
   <time name="diis">    0.44    0.44</time>
   <time name="orth">    0.10    0.10</time>
   <time name="total">    0.87    0.88</time>
   <energy>
    <i name="e_fr_energy">   -386.40567754 </i>
    <i name="e_wo_entrp">   -386.35838052 </i>
    <i name="e_0_energy">   -386.38202903 </i>
   </energy>
  </scstep>
  <scstep>
   <time name="diag">    0.34    0.34</time>
   <time name="diis">    0.44    0.45</time>
   <time name="orth">    0.10    0.10</time>
   <time name="total">    0.88    0.89</time>
   <energy>
    <i name="e_fr_energy">   -395.72817062 </i>
    <i name="e_wo_entrp">   -395.68194634 </i>
    <i name="e_0_energy">   -395.70505848 </i>
   </energy>
  </scstep>
  <scstep>
   <time name="diag">    0.34    0.34</time>
   <time name="diis">    0.44    0.44</time>
   <time name="orth">    0.10    0.10</time>
   <time name="total">    0.87    0.88</time>
   <energy>
    <i name="e_fr_energy">   -399.15224137 </i>
    <i name="e_wo_entrp">   -399.10011735 </i>
    <i name="e_0_energy">   -399.12617936 </i>
   </energy>
  </scstep>
  <scstep>
   <time name="diag">    0.34    0.34</time>
   <time name="diis">    0.45    0.45</time>
   <time name="orth">    0.10    0.10</time>
   <time name="total">    0.88    0.89</time>
   <energy>
    <i name="e_fr_energy">   -400.57036529 </i>
    <i name="e_wo_entrp">   -400.51567294 </i>
    <i name="e_0_energy">   -400.54301912 </i>
   </energy>
  </scstep>
  <scstep>
   <time name="diag">    0.34    0.34</time>
   <time name="diis">    0.97    0.98</time>
   <time name="orth">    0.10    0.10</time>
   <time name="total">    1.40    1.42</time>
   <energy>
    <i name="e_fr_energy">   -401.41819218 </i>
    <i name="e_wo_entrp">   -401.36303382 </i>
    <i name="e_0_energy">   -401.39061300 </i>
   </energy>
  </scstep>
  <scstep>
   <time name="diag">    0.34    0.34</time>
   <time name="diis">    0.93    0.94</time>
   <time name="orth">    0.10    0.10</time>
   <time name="total">    1.36    1.38</time>
   <energy>
    <i name="e_fr_energy">   -401.52423448 </i>
    <i name="e_wo_entrp">   -401.46826942 </i>
    <i name="e_0_energy">   -401.49625195 </i>
   </energy>
  </scstep>
  <scstep>
   <time name="diag">    0.34    0.34</time>
   <time name="diis">    0.89    0.90</time>
   <time name="orth">    0.10    0.10</time>
   <time name="total">    1.32    1.34</time>
   <energy>
    <i name="e_fr_energy">   -401.52604891 </i>
    <i name="e_wo_entrp">   -401.47006673 </i>
    <i name="e_0_energy">   -401.49805782 </i>
   </energy>
  </scstep>
  <scstep>
   <time name="diag">    0.34    0.34</time>
   <time name="diis">    0.78    0.79</time>
   <time name="orth">    0.10    0.10</time>
   <time name="total">    1.26    1.27</time>
   <energy>
    <i name="e_fr_energy">   -401.52606253 </i>
    <i name="e_wo_entrp">   -401.47008041 </i>
    <i name="e_0_energy">   -401.49807147 </i>
   </energy>
  </scstep>
  <scstep>
   <time name="diag">    0.34    0.34</time>
   <time name="diis">    0.89    0.90</time>
   <time name="orth">    0.10    0.10</time>
   <time name="total">    1.46    1.48</time>
   <energy>
    <i name="e_fr_energy">   -407.30155213 </i>
    <i name="e_wo_entrp">   -407.25046985 </i>
    <i name="e_0_energy">   -407.27601099 </i>
   </energy>
  </scstep>
  <scstep>
   <time name="diag">    0.34    0.34</time>
   <time name="diis">    0.90    0.91</time>
   <time name="orth">    0.10    0.10</time>
   <time name="total">    1.47    1.48</time>
   <energy>
    <i name="e_fr_energy">   -415.16622508 </i>
    <i name="e_wo_entrp">   -415.10305264 </i>
    <i name="e_0_energy">   -415.13463886 </i>
   </energy>
  </scstep>
  <scstep>
   <time name="diag">    0.34    0.34</time>
   <time name="diis">    0.89    0.91</time>
   <time name="orth">    0.10    0.10</time>
   <time name="total">    1.46    1.48</time>
   <energy>
    <i name="e_fr_energy">   -415.72827609 </i>
    <i name="e_wo_entrp">   -415.68722898 </i>
    <i name="e_0_energy">   -415.70775254 </i>
   </energy>
  </scstep>
  <scstep>
   <time name="diag">    0.34    0.34</time>
   <time name="diis">    0.91    0.93</time>
   <time name="orth">    0.10    0.10</time>
   <time name="total">    1.48    1.50</time>
   <energy>
    <i name="e_fr_energy">   -415.91211244 </i>
    <i name="e_wo_entrp">   -415.87387310 </i>
    <i name="e_0_energy">   -415.89299277 </i>
   </energy>
  </scstep>
  <scstep>
   <time name="diag">    0.34    0.34</time>
   <time name="diis">    0.94    0.96</time>
   <time name="orth">    0.10    0.10</time>
   <time name="total">    1.52    1.53</time>
   <energy>
    <i name="e_fr_energy">   -416.02632301 </i>
    <i name="e_wo_entrp">   -415.98097777 </i>
    <i name="e_0_energy">   -416.00365039 </i>
   </energy>
  </scstep>
  <scstep>
   <time name="diag">    0.34    0.34</time>
   <time name="diis">    0.91    0.92</time>
   <time name="orth">    0.10    0.10</time>
   <time name="total">    1.48    1.50</time>
   <energy>
    <i name="e_fr_energy">   -416.07336365 </i>
    <i name="e_wo_entrp">   -416.02170356 </i>
    <i name="e_0_energy">   -416.04753360 </i>
   </energy>
  </scstep>
  <scstep>
   <time name="diag">    0.34    0.34</time>
   <time name="diis">    0.93    0.95</time>
   <time name="orth">    0.10    0.10</time>
   <time name="total">    1.50    1.52</time>
   <energy>
    <i name="e_fr_energy">   -416.08211606 </i>
    <i name="e_wo_entrp">   -416.02158494 </i>
    <i name="e_0_energy">   -416.05185050 </i>
   </energy>
  </scstep>
  <scstep>
   <time name="diag">    0.34    0.34</time>
   <time name="diis">    0.95    0.97</time>
   <time name="orth">    0.10    0.10</time>
   <time name="total">    1.52    1.54</time>
   <energy>
    <i name="e_fr_energy">   -416.08422738 </i>
    <i name="e_wo_entrp">   -416.01769292 </i>
    <i name="e_0_energy">   -416.05096015 </i>
   </energy>
  </scstep>
  <scstep>
   <time name="diag">    0.34    0.34</time>
   <time name="diis">    0.93    0.94</time>
   <time name="orth">    0.10    0.10</time>
   <time name="total">    1.50    1.51</time>
   <energy>
    <i name="e_fr_energy">   -416.08502339 </i>
    <i name="e_wo_entrp">   -416.01487793 </i>
    <i name="e_0_energy">   -416.04995066 </i>
   </energy>
  </scstep>
  <scstep>
   <time name="diag">    0.34    0.34</time>
   <time name="diis">    0.92    0.93</time>
   <time name="orth">    0.10    0.10</time>
   <time name="total">    1.49    1.51</time>
   <energy>
    <i name="e_fr_energy">   -416.08555043 </i>
    <i name="e_wo_entrp">   -416.01272680 </i>
    <i name="e_0_energy">   -416.04913862 </i>
   </energy>
  </scstep>
  <scstep>
   <time name="diag">    0.33    0.34</time>
   <time name="diis">    0.91    0.92</time>
   <time name="orth">    0.10    0.10</time>
   <time name="total">    1.47    1.49</time>
   <energy>
    <i name="e_fr_energy">   -416.08593441 </i>
    <i name="e_wo_entrp">   -416.01089655 </i>
    <i name="e_0_energy">   -416.04841548 </i>
   </energy>
  </scstep>
  <scstep>
   <time name="diag">    0.33    0.34</time>
   <time name="diis">    0.91    0.92</time>
   <time name="orth">    0.10    0.10</time>
   <time name="total">    1.48    1.49</time>
   <energy>
    <i name="e_fr_energy">   -416.08615853 </i>
    <i name="e_wo_entrp">   -416.00962402 </i>
    <i name="e_0_energy">   -416.04789128 </i>
   </energy>
  </scstep>
  <scstep>
   <time name="diag">    0.33    0.34</time>
   <time name="diis">    0.91    0.92</time>
   <time name="orth">    0.10    0.10</time>
   <time name="total">    1.47    1.49</time>
   <energy>
    <i name="e_fr_energy">   -416.08626978 </i>
    <i name="e_wo_entrp">   -416.00890013 </i>
    <i name="e_0_energy">   -416.04758495 </i>
   </energy>
  </scstep>
  <scstep>
   <time name="diag">    0.33    0.33</time>
   <time name="diis">    0.90    0.91</time>
   <time name="orth">    0.10    0.10</time>
   <time name="total">    1.46    1.48</time>
   <energy>
    <i name="e_fr_energy">   -416.08632442 </i>
    <i name="e_wo_entrp">   -416.00853487 </i>
    <i name="e_0_energy">   -416.04742964 </i>
   </energy>
  </scstep>
  <scstep>
   <time name="diag">    0.33    0.34</time>
   <time name="diis">    0.92    0.94</time>
   <time name="orth">    0.10    0.10</time>
   <time name="total">    1.49    1.51</time>
   <energy>
    <i name="e_fr_energy">   -416.08634562 </i>
    <i name="e_wo_entrp">   -416.00838670 </i>
    <i name="e_0_energy">   -416.04736616 </i>
   </energy>
  </scstep>
  <scstep>
   <time name="diag">    0.33    0.34</time>
   <time name="diis">    0.93    0.94</time>
   <time name="orth">    0.10    0.10</time>
   <time name="total">    1.45    1.46</time>
   <energy>
    <i name="alphaZ">    316.14514549 </i>
    <i name="ewald"> -14950.96582243 </i>
    <i name="hartreedc">   -114.49510770 </i>
    <i name="XCdc">   -769.69124928 </i>
    <i name="pawpsdc">  85610.09229091 </i>
    <i name="pawaedc"> -83865.27399749 </i>
    <i name="eentropy">     -0.07801172 </i>
    <i name="bandstr">   3052.05178375 </i>
    <i name="atom">  10306.12861560 </i>
    <i name="e_fr_energy">   -416.08635288 </i>
    <i name="e_wo_entrp">   -416.00834116 </i>
    <i name="e_0_energy">   -416.04734702 </i>
   </energy>
  </scstep>
  <structure>
   <crystal>
    <varray name="basis" >
     <v>      10.21149500       0.00000000       0.00000000 </v>
     <v>       0.00000000      10.21149500       0.00000000 </v>
     <v>       0.00000000       0.00000000      10.21149500 </v>
    </varray>
    <i name="volume">   1064.79986425 </i>
    <varray name="rec_basis" >
     <v>       0.09792885       0.00000000       0.00000000 </v>
     <v>       0.00000000       0.09792885       0.00000000 </v>
     <v>       0.00000000       0.00000000       0.09792885 </v>
    </varray>
   </crystal>
   <varray name="positions" >
    <v>       0.01036860       0.19426000       0.04229450 </v>
    <v>       0.21195800       0.71624300       0.52440900 </v>
    <v>       0.57437800       0.82037500       0.87819800 </v>
    <v>       0.20200200       0.40116200       0.32232300 </v>
    <v>       0.20301700       0.18891900       0.43594300 </v>
    <v>       0.62825300       0.32854300       0.23435300 </v>
    <v>       0.55817800       0.43497900       0.43315500 </v>
    <v>       0.79026200       0.37903700       0.97749500 </v>
    <v>       0.85367400       0.31482400       0.17012500 </v>
    <v>       0.94523800       0.52361100       0.45339700 </v>
    <v>       0.86317400       0.65235400       0.29043900 </v>
    <v>       0.40287300       0.28831200       0.28046100 </v>
    <v>       0.76105300       0.01900010       0.42673500 </v>
    <v>       0.64102300       0.94506000       0.10524600 </v>
    <v>       0.87277400       0.87067200       0.03365410 </v>
    <v>       0.21014900       0.82816400       0.08448220 </v>
    <v>       0.08019640       0.85462300       0.67562100 </v>
    <v>       0.60722700       0.05513260       0.89011400 </v>
    <v>       0.90998500       0.59853600       0.05956980 </v>
    <v>       0.62293000       0.09594580       0.27611600 </v>
    <v>       0.02906940       0.75141600       0.20040000 </v>
    <v>       0.51164200       0.63672100       0.80993800 </v>
    <v>       0.86731600       0.92578500       0.60699100 </v>
    <v>       0.91753700       0.50874100       0.86039200 </v>
    <v>       0.58067700       0.83670100       0.64123500 </v>
    <v>       0.71956400       0.73973500       0.12054600 </v>
    <v>       0.53368800       0.63667100       0.55888600 </v>
    <v>       0.78028900       0.88803700       0.82905900 </v>
    <v>       0.40517500       0.14257800       0.89514700 </v>
    <v>       0.37600500       0.79571100       0.65321100 </v>
    <v>       0.04387420       0.96850400       0.14067600 </v>
    <v>       0.41417600       0.92173000       0.00182856 </v>
    <v>       0.17732900       0.84611200       0.33229900 </v>
    <v>       0.60882300       0.86922400       0.30719800 </v>
    <v>       0.57291500       0.20807300       0.69352500 </v>
    <v>       0.51132300       0.40900300       0.68409900 </v>
    <v>       0.15599400       0.49732400       0.54683800 </v>
    <v>       0.92341700       0.38698800       0.65871200 </v>
    <v>       0.53620900       0.52983700       0.99874500 </v>
    <v>       0.22526600       0.04645580       0.23579300 </v>
    <v>       0.02041030       0.41091500       0.02344850 </v>
    <v>       0.33233500       0.54353800       0.65588800 </v>
    <v>       0.77169300       0.77203600       0.45876800 </v>
    <v>       0.73726900       0.65795600       0.90976600 </v>
    <v>       0.28992300       0.64691400       0.19972600 </v>
    <v>       0.43972800       0.10518100       0.14404100 </v>
    <v>       0.42874600       0.79086500       0.43280700 </v>
    <v>       0.21578200       0.66599100       0.78300600 </v>
    <v>       0.47660900       0.49829200       0.20860700 </v>
    <v>       0.01485200       0.30939600       0.45172500 </v>
    <v>       0.13245200       0.44358800       0.79651800 </v>
    <v>       0.35457200       0.56477800       0.41034400 </v>
    <v>       0.99027000       0.27738800       0.83946300 </v>
    <v>       0.22464100       0.06328100       0.01377470 </v>
    <v>       0.77402400       0.23420300       0.78117000 </v>
    <v>       0.12868400       0.28006700       0.62410000 </v>
    <v>       0.63788700       0.20311600       0.06138910 </v>
    <v>       0.13398800       0.61763900       0.35091900 </v>
    <v>       0.07907530       0.07086530       0.58234100 </v>
    <v>       0.77591000       0.72276900       0.68411200 </v>
    <v>       0.60070800       0.33606700       0.88058000 </v>
    <v>       0.94311000       0.73429000       0.85189200 </v>
    <v>       0.43394400       0.98729400       0.73965300 </v>
    <v>       0.97092200       0.99006700       0.40920800 </v>
    <v>       0.39256300       0.88365700       0.23299300 </v>
    <v>       0.34270400       0.47312000       0.90386600 </v>
    <v>       0.26077100       0.88469200       0.84054800 </v>
    <v>       0.00651722       0.17642300       0.27304500 </v>
    <v>       0.54715300       0.00463347       0.49680700 </v>
    <v>       0.50764400       0.72589400       0.14341900 </v>
    <v>       0.87293400       0.15449000       0.56227700 </v>
    <v>       0.71282200       0.52075200       0.14482600 </v>
    <v>       0.35238900       0.69409900       0.97438900 </v>
    <v>       0.76276600       0.23576500       0.38455000 </v>
    <v>       0.82708200       0.09492280       0.16213900 </v>
    <v>       0.35180700       0.35187900       0.50534900 </v>
    <v>       0.69167400       0.04258020       0.66309300 </v>
    <v>       0.31160700       0.30561500       0.75375000 </v>
    <v>       0.70625100       0.49810100       0.76062100 </v>
    <v>       0.44305200       0.30371500       0.05487570 </v>
    <v>       0.20812900       0.27766500       0.95008000 </v>
    <v>       0.94519500       0.04542660       0.76955800 </v>
    <v>       0.99352100       0.61583900       0.68082100 </v>
    <v>       0.53817700       0.21005600       0.47287000 </v>
    <v>       0.06936010       0.92071500       0.91052400 </v>
    <v>       0.85342500       0.87446700       0.26403700 </v>
    <v>       0.71197900       0.32484400       0.57689800 </v>
    <v>       0.12285500       0.62566200       0.99651200 </v>
    <v>       0.34359400       0.15615400       0.60080800 </v>
    <v>       0.16607800       0.10426600       0.78735800 </v>
    <v>       0.73534400       0.55568100       0.55335100 </v>
    <v>       0.00612933       0.76117100       0.48499200 </v>
    <v>       0.19116800       0.25003400       0.16986800 </v>
    <v>       0.24972900       0.95605900       0.51225400 </v>
    <v>       0.76649900       0.46077900       0.35802900 </v>
    <v>       0.39390200       0.06708810       0.36191100 </v>
    <v>       0.82137400       0.08383220       0.94739900 </v>
    <v>       0.60718900       0.65004600       0.33225600 </v>
    <v>       0.00242337       0.46304100       0.24768500 </v>
    <v>       0.23765700       0.46524100       0.10334400 </v>
   </varray>
  </structure>
  <varray name="forces" >
   <v>      -0.54619581      -2.59139051       0.22337894 </v>
   <v>       1.94891718       1.01351153       1.66118861 </v>
   <v>       0.49415286       2.51655382       1.30079672 </v>
   <v>       0.67154841       0.10560058       1.67290074 </v>
   <v>      -0.18859061      -0.49957388      -2.93281332 </v>
   <v>      -0.62904784      -0.34326520       0.49311486 </v>
   <v>      -1.36340157       0.86531417       0.43268486 </v>
   <v>      -1.02093071      -0.61942803      -0.35085243 </v>
   <v>      -0.27072325       0.41594134       1.38509618 </v>
   <v>       1.12698049       0.90930488       3.06070408 </v>
   <v>      -1.23536654      -0.03977551      -0.31208728 </v>
   <v>      -0.36824836      -0.57136092       0.68614707 </v>
   <v>      -1.30353882      -1.52510226       0.15561283 </v>
   <v>      -0.57304209       1.38320084      -1.72926748 </v>
   <v>       0.32382832      -0.04527800       0.02407436 </v>
   <v>       0.01743088       0.41992385      -0.44362432 </v>
   <v>       0.58044823      -0.29529043       0.56770628 </v>
   <v>       0.54596090      -1.12043332      -0.32706573 </v>
   <v>      -0.65962179       1.44964547       1.53985969 </v>
   <v>      -0.71037665       0.52231173      -0.86253747 </v>
   <v>       1.03128809      -1.23428723      -1.99497270 </v>
   <v>      -0.60986577      -1.86529279      -2.58849765 </v>
   <v>       0.80792186      -2.78283138      -0.44369152 </v>
   <v>      -0.01584668       0.06466175      -2.12933524 </v>
   <v>       2.84879795       0.74464675       0.38420347 </v>
   <v>       1.16212349       0.06117123       0.35872350 </v>
   <v>      -0.86688315      -1.15529012       0.54020778 </v>
   <v>      -0.68025717       1.43836586      -0.15707586 </v>
   <v>      -0.72760786       1.46895133       0.41795796 </v>
   <v>      -2.78680086      -1.06467138       0.63293687 </v>
   <v>      -1.40787900       1.58238357      -0.01341173 </v>
   <v>       0.63527467      -0.09315406       0.37367480 </v>
   <v>       0.81258136       0.38035067       0.77124482 </v>
   <v>       0.84426087       0.47253453       1.46980476 </v>
   <v>      -3.56357501      -1.68631782       1.53589313 </v>
   <v>      -1.47823017       2.84759611      -0.46247736 </v>
   <v>      -1.39552748      -1.19125088      -0.31916693 </v>
   <v>      -0.72903192       0.62649213      -0.95481742 </v>
   <v>       1.09047131      -0.44434955      -0.37307938 </v>
   <v>      -1.29475335       0.14002228       0.31934049 </v>
   <v>       1.96353282       0.65165410       1.30114014 </v>
   <v>       2.74949666      -0.53735714       0.08911305 </v>
   <v>      -1.13968952       0.26311041       0.89678097 </v>
   <v>      -1.19998982      -0.35470095       0.47520148 </v>
   <v>       1.21016518       1.39753162       0.77989739 </v>
   <v>      -0.57214990      -1.24060235      -0.89409228 </v>
   <v>      -0.65601295       0.33770479      -0.74130536 </v>
   <v>      -1.41730772       0.83758656       0.98679929 </v>
   <v>      -1.48224755       0.58649508       0.49986235 </v>
   <v>      -2.41339150       1.02739274      -2.28104489 </v>
   <v>       0.58282358       1.60742962      -0.32213854 </v>
   <v>       1.14094571       0.09586211      -0.09172357 </v>
   <v>      -0.07357688      -1.93947660      -0.68119303 </v>
   <v>      -0.39977608      -0.20677434       0.07103755 </v>
   <v>       1.64339376      -0.11722720       0.04739018 </v>
   <v>       0.79905246       0.72025497       2.70524190 </v>
   <v>       1.68433642      -0.97401965      -0.42062229 </v>
   <v>      -0.79325178      -0.45451241      -1.00194474 </v>
   <v>      -0.38102946      -1.19521784       0.37885292 </v>
   <v>       0.31823456      -0.04840799      -0.41413453 </v>
   <v>      -2.39904534       0.38832514       0.81164507 </v>
   <v>       1.84885382       1.21131915       1.10364610 </v>
   <v>       0.37345369       0.91034460      -1.36334724 </v>
   <v>       2.87425348      -0.32829446      -1.69546040 </v>
   <v>      -1.18865534      -0.55532777      -0.64148237 </v>
   <v>       0.30819383      -0.06057358      -0.87838472 </v>
   <v>       1.77524907      -0.86939943      -1.47598325 </v>
   <v>       0.11127791      -0.89390761       1.36194467 </v>
   <v>       0.05505953      -3.15842261       1.03634166 </v>
   <v>      -1.31950755      -0.86623629      -1.29216903 </v>
   <v>       0.20581213       1.24321188       1.24364305 </v>
   <v>      -0.12697244      -0.49022808      -0.38337272 </v>
   <v>       0.47026117       0.08299343      -0.92289530 </v>
   <v>       1.91943280       0.30444841      -0.75719781 </v>
   <v>      -0.25998254      -1.86096830       1.63683853 </v>
   <v>      -0.04622034       1.59757282       0.06123833 </v>
   <v>       0.90657058      -1.68900511       0.58141204 </v>
   <v>       1.41616484       0.08704504      -0.01807885 </v>
   <v>       0.05512661      -0.33174513       0.38803758 </v>
   <v>      -1.83325855       2.34857614      -0.98375508 </v>
   <v>       0.42859457       0.64832948       0.08944234 </v>
   <v>       0.27080287       1.50572841       0.59987013 </v>
   <v>       0.76817676      -0.43189988      -2.49988368 </v>
   <v>      -0.18467357       2.51936045      -1.29972991 </v>
   <v>      -2.48216762       0.12312299       1.16821202 </v>
   <v>      -0.92943177       1.22373878      -0.51578604 </v>
   <v>       1.00481890       1.64344109      -0.00544228 </v>
   <v>      -0.09539562       0.96363367      -0.33717766 </v>
   <v>       1.66299771      -2.70926933       0.99590751 </v>
   <v>       0.79533743       0.21398609       0.25916407 </v>
   <v>       1.19687205      -0.23211035      -0.63150703 </v>
   <v>      -2.31899689       0.54306701      -0.45247889 </v>
   <v>       0.59925062       0.27701278      -0.25116529 </v>
   <v>       1.18525364      -0.83696398       1.14381869 </v>
   <v>      -0.30803446      -1.38618674      -1.03713148 </v>
   <v>       0.65510341       1.06266550       0.85184439 </v>
   <v>       0.58648339       0.56968507      -0.21126068 </v>
   <v>       0.53143779      -1.06569869       1.22409867 </v>
   <v>      -0.37362184      -1.01052785      -1.05235001 </v>
   <v>      -0.21907714      -1.40770942      -0.84666212 </v>
  </varray>
  <varray name="stress" >
   <v>     644.33898399       3.78879741      28.69296236 </v>
   <v>       3.78879733     664.92462649      19.02252144 </v>
   <v>      28.69296262      19.02252124     667.91559283 </v>
  </varray>
  <energy>
   <i name="e_fr_energy">   -416.08635288 </i>
   <i name="e_wo_entrp">   -416.04734702 </i>
   <i name="e_0_energy">     -0.07801172 </i>
  </energy>
  <time name="totalsc">   38.21   38.85</time>
  <eigenvalues>
   <array>
    <dimension dim="1">band</dimension>
    <dimension dim="2">kpoint</dimension>
    <dimension dim="3">spin</dimension>
    <field>eigene</field>
    <field>occ</field>
    <set>
     <set comment="spin 1">
      <set comment="kpoint 1">
       <r>   -3.0437    1.0000 </r>
       <r>   -1.8512    1.0000 </r>
       <r>   -1.7769    1.0000 </r>
       <r>   -1.7494    1.0000 </r>
       <r>   -1.6909    1.0000 </r>
       <r>   -1.5982    1.0000 </r>
       <r>   -1.4454    1.0000 </r>
       <r>   -0.6724    1.0000 </r>
       <r>   -0.5341    1.0000 </r>
       <r>   -0.4693    1.0000 </r>
       <r>   -0.4346    1.0000 </r>
       <r>   -0.3802    1.0000 </r>
       <r>   -0.3168    1.0000 </r>
       <r>   -0.2213    1.0000 </r>
       <r>   -0.1581    1.0000 </r>
       <r>   -0.0919    1.0000 </r>
       <r>   -0.0687    1.0000 </r>
       <r>   -0.0081    1.0000 </r>
       <r>    0.0979    1.0000 </r>
       <r>    0.8698    1.0000 </r>
       <r>    0.9411    1.0000 </r>
       <r>    1.0258    1.0000 </r>
       <r>    1.0618    1.0000 </r>
       <r>    1.1382    1.0000 </r>
       <r>    1.2279    1.0000 </r>
       <r>    1.2386    1.0000 </r>
       <r>    1.3556    1.0000 </r>
       <r>    2.1981    1.0000 </r>
       <r>    2.3471    1.0000 </r>
       <r>    2.3618    1.0000 </r>
       <r>    2.5053    1.0000 </r>
       <r>    2.5552    1.0000 </r>
       <r>    2.6561    1.0000 </r>
       <r>    3.2423    1.0000 </r>
       <r>    3.3315    1.0000 </r>
       <r>    3.3526    1.0000 </r>
       <r>    3.3992    1.0000 </r>
       <r>    3.4654    1.0000 </r>
       <r>    3.5226    1.0000 </r>
       <r>    3.5644    1.0000 </r>
       <r>    3.6272    1.0000 </r>
       <r>    3.6664    1.0000 </r>
       <r>    3.6714    1.0000 </r>
       <r>    3.7102    1.0000 </r>
       <r>    3.7438    1.0000 </r>
       <r>    3.8134    1.0000 </r>
       <r>    3.8359    1.0000 </r>
       <r>    3.8762    1.0000 </r>
       <r>    3.8770    1.0000 </r>
       <r>    3.9365    1.0000 </r>
       <r>    3.9994    1.0000 </r>
       <r>    4.0493    1.0000 </r>
       <r>    4.1054    1.0000 </r>
       <r>    4.1307    1.0000 </r>
       <r>    4.1749    1.0000 </r>
       <r>    4.2290    1.0000 </r>
       <r>    4.3721    1.0000 </r>
       <r>    4.7773    1.0000 </r>
       <r>    4.7952    1.0000 </r>
       <r>    4.8417    1.0000 </r>
       <r>    4.8716    1.0000 </r>
       <r>    4.9459    1.0000 </r>
       <r>    4.9851    1.0000 </r>
       <r>    5.0166    1.0000 </r>
       <r>    5.0653    1.0000 </r>
       <r>    5.0878    1.0000 </r>
       <r>    5.1010    1.0000 </r>
       <r>    5.1575    1.0000 </r>
       <r>    5.1772    1.0000 </r>
       <r>    5.1948    1.0000 </r>
       <r>    5.2525    1.0000 </r>
       <r>    5.3220    1.0000 </r>
       <r>    5.3332    1.0000 </r>
       <r>    5.3865    1.0000 </r>
       <r>    5.4277    1.0000 </r>
       <r>    5.4731    1.0000 </r>
       <r>    5.5693    1.0000 </r>
       <r>    5.5948    1.0000 </r>
       <r>    5.6341    1.0000 </r>
       <r>    5.7027    1.0000 </r>
       <r>    5.7569    1.0000 </r>
       <r>    7.2721    1.0000 </r>
       <r>    7.4038    1.0000 </r>
       <r>    7.4276    1.0000 </r>
       <r>    7.4800    1.0000 </r>
       <r>    7.5304    1.0000 </r>
       <r>    7.6210    1.0000 </r>
       <r>    7.6663    1.0000 </r>
       <r>    7.8109    1.0000 </r>
       <r>    7.8348    1.0000 </r>
       <r>    7.9042    1.0000 </r>
       <r>    7.9643    1.0000 </r>
       <r>    7.9997    1.0000 </r>
       <r>    8.2910    1.0000 </r>
       <r>    8.2978    1.0000 </r>
       <r>    8.4324    1.0000 </r>
       <r>    8.5033    1.0000 </r>
       <r>    8.5908    1.0000 </r>
       <r>    8.6607    1.0000 </r>
       <r>    8.6786    1.0000 </r>
       <r>    8.7264    1.0000 </r>
       <r>    8.7929    1.0000 </r>
       <r>    8.8246    1.0000 </r>
       <r>    8.8702    1.0000 </r>
       <r>    8.9085    1.0000 </r>
       <r>    8.9579    1.0000 </r>
       <r>    8.9846    1.0000 </r>
       <r>    9.0272    1.0000 </r>
       <r>    9.0510    1.0000 </r>
       <r>    9.0887    1.0000 </r>
       <r>    9.1455    1.0000 </r>
       <r>    9.2025    1.0000 </r>
       <r>    9.2352    1.0000 </r>
       <r>    9.2968    1.0000 </r>
       <r>    9.3180    1.0000 </r>
       <r>    9.3944    1.0000 </r>
       <r>    9.4211    1.0000 </r>
       <r>    9.4924    1.0000 </r>
       <r>    9.5209    1.0000 </r>
       <r>    9.5403    1.0000 </r>
       <r>    9.5980    1.0000 </r>
       <r>    9.6704    1.0000 </r>
       <r>    9.7660    1.0000 </r>
       <r>    9.8975    1.0000 </r>
       <r>    9.9370    1.0000 </r>
       <r>   10.0146    1.0000 </r>
       <r>   10.0788    1.0000 </r>
       <r>   10.1250    1.0000 </r>
       <r>   10.1498    1.0000 </r>
       <r>   10.2247    1.0000 </r>
       <r>   10.2678    1.0000 </r>
       <r>   10.3124    1.0000 </r>
       <r>   10.3286    1.0000 </r>
       <r>   10.3979    1.0000 </r>
       <r>   10.4402    1.0000 </r>
       <r>   10.5245    1.0000 </r>
       <r>   10.5725    1.0000 </r>
       <r>   10.5966    1.0000 </r>
       <r>   10.6760    1.0000 </r>
       <r>   10.6836    1.0000 </r>
       <r>   10.7215    1.0000 </r>
       <r>   10.8023    1.0000 </r>
       <r>   10.8367    1.0000 </r>
       <r>   10.8834    1.0000 </r>
       <r>   10.9376    1.0000 </r>
       <r>   11.0324    1.0000 </r>
       <r>   11.1226    1.0000 </r>
       <r>   11.2197    1.0000 </r>
       <r>   11.3602    1.0000 </r>
       <r>   11.3799    1.0000 </r>
       <r>   11.4168    1.0000 </r>
       <r>   11.5114    1.0000 </r>
       <r>   11.5692    1.0000 </r>
       <r>   11.6039    1.0000 </r>
       <r>   11.6218    1.0000 </r>
       <r>   11.6887    1.0000 </r>
       <r>   11.7914    1.0000 </r>
       <r>   11.8056    1.0000 </r>
       <r>   11.8355    1.0000 </r>
       <r>   11.8981    1.0000 </r>
       <r>   11.9358    1.0000 </r>
       <r>   11.9583    1.0000 </r>
       <r>   12.0037    1.0000 </r>
       <r>   12.0220    1.0000 </r>
       <r>   12.1036    1.0000 </r>
       <r>   12.1342    1.0000 </r>
       <r>   12.1872    1.0000 </r>
       <r>   12.2613    1.0000 </r>
       <r>   12.3044    1.0000 </r>
       <r>   12.4062    1.0000 </r>
       <r>   12.4646    1.0000 </r>
       <r>   12.7033    1.0000 </r>
       <r>   12.8478    1.0000 </r>
       <r>   12.9177    1.0000 </r>
       <r>   13.0838    1.0000 </r>
       <r>   13.1314    1.0000 </r>
       <r>   13.1983    1.0000 </r>
       <r>   13.3057    1.0000 </r>
       <r>   13.4713    1.0000 </r>
       <r>   13.6585    1.0000 </r>
       <r>   13.7524    1.0000 </r>
       <r>   13.7840    1.0000 </r>
       <r>   13.8528    1.0000 </r>
       <r>   13.8840    1.0000 </r>
       <r>   13.9660    1.0000 </r>
       <r>   14.0563    1.0000 </r>
       <r>   14.0733    1.0000 </r>
       <r>   14.1687    1.0000 </r>
       <r>   14.2405    1.0000 </r>
       <r>   14.2717    1.0000 </r>
       <r>   14.3101    1.0000 </r>
       <r>   14.3349    1.0000 </r>
       <r>   14.3875    1.0000 </r>
       <r>   14.4084    1.0000 </r>
       <r>   14.4788    1.0000 </r>
       <r>   14.5297    1.0000 </r>
       <r>   14.5966    1.0000 </r>
       <r>   14.6273    0.9990 </r>
       <r>   14.7057    0.8077 </r>
       <r>   14.7231    0.6473 </r>
       <r>   14.7323    0.5465 </r>
       <r>   14.8079    0.0216 </r>
       <r>   14.8794    0.0000 </r>
       <r>   14.8866    0.0000 </r>
       <r>   14.9384    0.0000 </r>
       <r>   14.9634    0.0000 </r>
       <r>   15.0083    0.0000 </r>
       <r>   15.0428    0.0000 </r>
       <r>   15.0582    0.0000 </r>
       <r>   15.1031    0.0000 </r>
       <r>   15.1672    0.0000 </r>
       <r>   15.2586    0.0000 </r>
       <r>   15.2788    0.0000 </r>
       <r>   15.3270    0.0000 </r>
       <r>   15.3337    0.0000 </r>
       <r>   15.4009    0.0000 </r>
       <r>   15.4210    0.0000 </r>
       <r>   15.4955    0.0000 </r>
       <r>   15.5246    0.0000 </r>
       <r>   15.5554    0.0000 </r>
       <r>   15.5677    0.0000 </r>
       <r>   15.5922    0.0000 </r>
       <r>   15.6585    0.0000 </r>
       <r>   15.7024    0.0000 </r>
       <r>   15.7406    0.0000 </r>
       <r>   15.7865    0.0000 </r>
       <r>   15.8074    0.0000 </r>
       <r>   15.8196    0.0000 </r>
       <r>   15.8527    0.0000 </r>
       <r>   15.9072    0.0000 </r>
       <r>   15.9293    0.0000 </r>
       <r>   15.9738    0.0000 </r>
       <r>   15.9947    0.0000 </r>
       <r>   16.0076    0.0000 </r>
       <r>   16.0746    0.0000 </r>
       <r>   16.2027    0.0000 </r>
       <r>   16.2253    0.0000 </r>
       <r>   16.2779    0.0000 </r>
       <r>   16.3151    0.0000 </r>
       <r>   16.4179    0.0000 </r>
       <r>   16.4425    0.0000 </r>
       <r>   16.5245    0.0000 </r>
       <r>   16.5649    0.0000 </r>
       <r>   16.5882    0.0000 </r>
       <r>   16.6799    0.0000 </r>
       <r>   16.7569    0.0000 </r>
       <r>   16.8091    0.0000 </r>
       <r>   16.8715    0.0000 </r>
       <r>   16.9789    0.0000 </r>
       <r>   17.0958    0.0000 </r>
       <r>   17.1776    0.0000 </r>
       <r>   17.8657    0.0000 </r>
       <r>   17.9150    0.0000 </r>
       <r>   18.1810    0.0000 </r>
       <r>   18.2011    0.0000 </r>
       <r>   18.3558    0.0000 </r>
       <r>   18.3813    0.0000 </r>
       <r>   18.4889    0.0000 </r>
       <r>   18.5361    0.0000 </r>
       <r>   18.6653    0.0000 </r>
       <r>   18.6860    0.0000 </r>
       <r>   18.7077    0.0000 </r>
       <r>   18.7940    0.0000 </r>
       <r>   18.8613    0.0000 </r>
       <r>   18.9116    0.0000 </r>
       <r>   18.9566    0.0000 </r>
       <r>   19.0157    0.0000 </r>
       <r>   19.0292    0.0000 </r>
       <r>   19.0303    0.0000 </r>
       <r>   19.0736    0.0000 </r>
       <r>   19.0982    0.0000 </r>
       <r>   19.1249    0.0000 </r>
       <r>   19.1507    0.0000 </r>
       <r>   19.1992    0.0000 </r>
       <r>   19.2329    0.0000 </r>
       <r>   19.2447    0.0000 </r>
       <r>   19.2904    0.0000 </r>
       <r>   19.3618    0.0000 </r>
       <r>   19.3810    0.0000 </r>
       <r>   19.4064    0.0000 </r>
       <r>   19.4507    0.0000 </r>
       <r>   19.4723    0.0000 </r>
       <r>   19.5074    0.0000 </r>
       <r>   19.5710    0.0000 </r>
       <r>   19.5814    0.0000 </r>
       <r>   19.5873    0.0000 </r>
       <r>   19.6315    0.0000 </r>
       <r>   19.6569    0.0000 </r>
       <r>   19.6631    0.0000 </r>
       <r>   19.7685    0.0000 </r>
       <r>   19.7868    0.0000 </r>
       <r>   19.8254    0.0000 </r>
       <r>   19.8835    0.0000 </r>
       <r>   19.8955    0.0000 </r>
       <r>   19.9506    0.0000 </r>
       <r>   20.0077    0.0000 </r>
       <r>   20.0513    0.0000 </r>
       <r>   20.0789    0.0000 </r>
       <r>   20.1211    0.0000 </r>
       <r>   20.1796    0.0000 </r>
       <r>   20.2384    0.0000 </r>
       <r>   20.2707    0.0000 </r>
       <r>   20.2967    0.0000 </r>
       <r>   20.3624    0.0000 </r>
      </set>
     </set>
     <set comment="spin 2">
      <set comment="kpoint 1">
       <r>   -3.0431    1.0000 </r>
       <r>   -1.8506    1.0000 </r>
       <r>   -1.7763    1.0000 </r>
       <r>   -1.7488    1.0000 </r>
       <r>   -1.6902    1.0000 </r>
       <r>   -1.5976    1.0000 </r>
       <r>   -1.4448    1.0000 </r>
       <r>   -0.6718    1.0000 </r>
       <r>   -0.5335    1.0000 </r>
       <r>   -0.4687    1.0000 </r>
       <r>   -0.4340    1.0000 </r>
       <r>   -0.3796    1.0000 </r>
       <r>   -0.3161    1.0000 </r>
       <r>   -0.2207    1.0000 </r>
       <r>   -0.1574    1.0000 </r>
       <r>   -0.0914    1.0000 </r>
       <r>   -0.0682    1.0000 </r>
       <r>   -0.0075    1.0000 </r>
       <r>    0.0985    1.0000 </r>
       <r>    0.8704    1.0000 </r>
       <r>    0.9417    1.0000 </r>
       <r>    1.0264    1.0000 </r>
       <r>    1.0625    1.0000 </r>
       <r>    1.1388    1.0000 </r>
       <r>    1.2285    1.0000 </r>
       <r>    1.2392    1.0000 </r>
       <r>    1.3561    1.0000 </r>
       <r>    2.1986    1.0000 </r>
       <r>    2.3477    1.0000 </r>
       <r>    2.3623    1.0000 </r>
       <r>    2.5060    1.0000 </r>
       <r>    2.5558    1.0000 </r>
       <r>    2.6567    1.0000 </r>
       <r>    3.2430    1.0000 </r>
       <r>    3.3320    1.0000 </r>
       <r>    3.3532    1.0000 </r>
       <r>    3.3999    1.0000 </r>
       <r>    3.4660    1.0000 </r>
       <r>    3.5233    1.0000 </r>
       <r>    3.5650    1.0000 </r>
       <r>    3.6279    1.0000 </r>
       <r>    3.6669    1.0000 </r>
       <r>    3.6720    1.0000 </r>
       <r>    3.7107    1.0000 </r>
       <r>    3.7444    1.0000 </r>
       <r>    3.8140    1.0000 </r>
       <r>    3.8365    1.0000 </r>
       <r>    3.8768    1.0000 </r>
       <r>    3.8776    1.0000 </r>
       <r>    3.9371    1.0000 </r>
       <r>    3.9999    1.0000 </r>
       <r>    4.0499    1.0000 </r>
       <r>    4.1060    1.0000 </r>
       <r>    4.1313    1.0000 </r>
       <r>    4.1755    1.0000 </r>
       <r>    4.2296    1.0000 </r>
       <r>    4.3727    1.0000 </r>
       <r>    4.7779    1.0000 </r>
       <r>    4.7957    1.0000 </r>
       <r>    4.8422    1.0000 </r>
       <r>    4.8723    1.0000 </r>
       <r>    4.9465    1.0000 </r>
       <r>    4.9857    1.0000 </r>
       <r>    5.0172    1.0000 </r>
       <r>    5.0660    1.0000 </r>
       <r>    5.0884    1.0000 </r>
       <r>    5.1016    1.0000 </r>
       <r>    5.1581    1.0000 </r>
       <r>    5.1778    1.0000 </r>
       <r>    5.1953    1.0000 </r>
       <r>    5.2531    1.0000 </r>
       <r>    5.3225    1.0000 </r>
       <r>    5.3337    1.0000 </r>
       <r>    5.3871    1.0000 </r>
       <r>    5.4284    1.0000 </r>
       <r>    5.4736    1.0000 </r>
       <r>    5.5699    1.0000 </r>
       <r>    5.5953    1.0000 </r>
       <r>    5.6347    1.0000 </r>
       <r>    5.7032    1.0000 </r>
       <r>    5.7575    1.0000 </r>
       <r>    7.2727    1.0000 </r>
       <r>    7.4043    1.0000 </r>
       <r>    7.4282    1.0000 </r>
       <r>    7.4805    1.0000 </r>
       <r>    7.5309    1.0000 </r>
       <r>    7.6216    1.0000 </r>
       <r>    7.6669    1.0000 </r>
       <r>    7.8116    1.0000 </r>
       <r>    7.8354    1.0000 </r>
       <r>    7.9048    1.0000 </r>
       <r>    7.9649    1.0000 </r>
       <r>    8.0003    1.0000 </r>
       <r>    8.2916    1.0000 </r>
       <r>    8.2985    1.0000 </r>
       <r>    8.4331    1.0000 </r>
       <r>    8.5039    1.0000 </r>
       <r>    8.5913    1.0000 </r>
       <r>    8.6613    1.0000 </r>
       <r>    8.6792    1.0000 </r>
       <r>    8.7270    1.0000 </r>
       <r>    8.7935    1.0000 </r>
       <r>    8.8251    1.0000 </r>
       <r>    8.8708    1.0000 </r>
       <r>    8.9091    1.0000 </r>
       <r>    8.9585    1.0000 </r>
       <r>    8.9852    1.0000 </r>
       <r>    9.0278    1.0000 </r>
       <r>    9.0516    1.0000 </r>
       <r>    9.0893    1.0000 </r>
       <r>    9.1461    1.0000 </r>
       <r>    9.2031    1.0000 </r>
       <r>    9.2357    1.0000 </r>
       <r>    9.2974    1.0000 </r>
       <r>    9.3185    1.0000 </r>
       <r>    9.3950    1.0000 </r>
       <r>    9.4217    1.0000 </r>
       <r>    9.4929    1.0000 </r>
       <r>    9.5215    1.0000 </r>
       <r>    9.5410    1.0000 </r>
       <r>    9.5986    1.0000 </r>
       <r>    9.6709    1.0000 </r>
       <r>    9.7665    1.0000 </r>
       <r>    9.8980    1.0000 </r>
       <r>    9.9376    1.0000 </r>
       <r>   10.0153    1.0000 </r>
       <r>   10.0794    1.0000 </r>
       <r>   10.1256    1.0000 </r>
       <r>   10.1504    1.0000 </r>
       <r>   10.2253    1.0000 </r>
       <r>   10.2684    1.0000 </r>
       <r>   10.3130    1.0000 </r>
       <r>   10.3292    1.0000 </r>
       <r>   10.3984    1.0000 </r>
       <r>   10.4408    1.0000 </r>
       <r>   10.5250    1.0000 </r>
       <r>   10.5730    1.0000 </r>
       <r>   10.5972    1.0000 </r>
       <r>   10.6766    1.0000 </r>
       <r>   10.6842    1.0000 </r>
       <r>   10.7221    1.0000 </r>
       <r>   10.8029    1.0000 </r>
       <r>   10.8373    1.0000 </r>
       <r>   10.8840    1.0000 </r>
       <r>   10.9382    1.0000 </r>
       <r>   11.0330    1.0000 </r>
       <r>   11.1232    1.0000 </r>
       <r>   11.2203    1.0000 </r>
       <r>   11.3609    1.0000 </r>
       <r>   11.3805    1.0000 </r>
       <r>   11.4174    1.0000 </r>
       <r>   11.5120    1.0000 </r>
       <r>   11.5698    1.0000 </r>
       <r>   11.6045    1.0000 </r>
       <r>   11.6224    1.0000 </r>
       <r>   11.6893    1.0000 </r>
       <r>   11.7921    1.0000 </r>
       <r>   11.8061    1.0000 </r>
       <r>   11.8361    1.0000 </r>
       <r>   11.8987    1.0000 </r>
       <r>   11.9364    1.0000 </r>
       <r>   11.9590    1.0000 </r>
       <r>   12.0043    1.0000 </r>
       <r>   12.0226    1.0000 </r>
       <r>   12.1042    1.0000 </r>
       <r>   12.1348    1.0000 </r>
       <r>   12.1879    1.0000 </r>
       <r>   12.2619    1.0000 </r>
       <r>   12.3050    1.0000 </r>
       <r>   12.4069    1.0000 </r>
       <r>   12.4652    1.0000 </r>
       <r>   12.7038    1.0000 </r>
       <r>   12.8484    1.0000 </r>
       <r>   12.9182    1.0000 </r>
       <r>   13.0844    1.0000 </r>
       <r>   13.1320    1.0000 </r>
       <r>   13.1988    1.0000 </r>
       <r>   13.3063    1.0000 </r>
       <r>   13.4718    1.0000 </r>
       <r>   13.6590    1.0000 </r>
       <r>   13.7530    1.0000 </r>
       <r>   13.7846    1.0000 </r>
       <r>   13.8533    1.0000 </r>
       <r>   13.8845    1.0000 </r>
       <r>   13.9665    1.0000 </r>
       <r>   14.0568    1.0000 </r>
       <r>   14.0739    1.0000 </r>
[...]
       <r>    -1.1178     0.0000     7.0000 </r>
       <r>    -1.0317     0.0000     7.0000 </r>
       <r>    -0.9456     0.0000     7.0000 </r>
       <r>    -0.8595     0.0000     7.0000 </r>
       <r>    -0.7733     0.0237     7.0020 </r>
       <r>    -0.6872     3.8258     7.3315 </r>
       <r>    -0.6011     7.8235     8.0052 </r>
       <r>    -0.5150     9.2935     8.8056 </r>
       <r>    -0.4289    19.7705    10.5081 </r>
       <r>    -0.3428    18.1594    12.0719 </r>
       <r>    -0.2567    12.0645    13.1108 </r>
       <r>    -0.1705    13.7161    14.2920 </r>
       <r>    -0.0844    18.6252    15.8959 </r>
       <r>     0.0017    19.5204    17.5769 </r>
       <r>     0.0878     9.3018    18.3780 </r>
       <r>     0.1739     7.0324    18.9836 </r>
       <r>     0.2600     0.1906    19.0000 </r>
       <r>     0.3462     0.0000    19.0000 </r>
       <r>     0.4323     0.0000    19.0000 </r>
       <r>     0.5184     0.0000    19.0000 </r>
       <r>     0.6045     0.0000    19.0000 </r>
       <r>     0.6906     0.0000    19.0000 </r>
       <r>     0.7767     0.0470    19.0040 </r>
       <r>     0.8629     4.9306    19.4286 </r>
       <r>     0.9490    13.4121    20.5836 </r>
       <r>     1.0351    14.2822    21.8136 </r>
       <r>     1.1212    16.7814    23.2587 </r>
       <r>     1.2073    13.6228    24.4318 </r>
       <r>     1.2934    17.5418    25.9425 </r>
       <r>     1.3795     9.3306    26.7460 </r>
       <r>     1.4657     2.9385    26.9990 </r>
       <r>     1.5518     0.0113    27.0000 </r>
       <r>     1.6379     0.0000    27.0000 </r>
       <r>     1.7240     0.0000    27.0000 </r>
       <r>     1.8101     0.0000    27.0000 </r>
       <r>     1.8962     0.0000    27.0000 </r>
       <r>     1.9824     0.0000    27.0000 </r>
       <r>     2.0685     0.0013    27.0001 </r>
       <r>     2.1546     1.2339    27.1064 </r>
       <r>     2.2407     9.0352    27.8844 </r>
       <r>     2.3268     6.3951    28.4352 </r>
       <r>     2.4129    16.9600    29.8957 </r>
       <r>     2.4991     6.7479    30.4768 </r>
       <r>     2.5852    15.4342    31.8059 </r>
       <r>     2.6713     9.9111    32.6594 </r>
       <r>     2.7574     3.9295    32.9978 </r>
       <r>     2.8435     0.0255    33.0000 </r>
       <r>     2.9296     0.0000    33.0000 </r>
       <r>     3.0157     0.0000    33.0000 </r>
       <r>     3.1019     0.0004    33.0000 </r>
       <r>     3.1880     0.6964    33.0600 </r>
       <r>     3.2741     9.4541    33.8741 </r>
       <r>     3.3602    18.8496    35.4974 </r>
       <r>     3.4463    19.8297    37.2050 </r>
       <r>     3.5324    17.9793    38.7533 </r>
       <r>     3.6186    20.0911    40.4835 </r>
       <r>     3.7047    31.8762    43.2285 </r>
       <r>     3.7908    23.6093    45.2617 </r>
       <r>     3.8769    30.3331    47.8738 </r>
       <r>     3.9630    23.6223    49.9081 </r>
       <r>     4.0491    18.1720    51.4730 </r>
       <r>     4.1352    23.1143    53.4635 </r>
       <r>     4.2214    21.3783    55.3045 </r>
       <r>     4.3075     8.2929    56.0186 </r>
       <r>     4.3936     8.1765    56.7228 </r>
       <r>     4.4797     3.2051    56.9988 </r>
       <r>     4.5658     0.0144    57.0000 </r>
       <r>     4.6519     0.0024    57.0002 </r>
       <r>     4.7381     2.1216    57.1829 </r>
       <r>     4.8242    22.0996    59.0860 </r>
       <r>     4.9103    22.2504    61.0021 </r>
       <r>     4.9964    21.4468    62.8490 </r>
       <r>     5.0825    29.5426    65.3931 </r>
       <r>     5.1686    32.6581    68.2055 </r>
       <r>     5.2548    26.5869    70.4950 </r>
       <r>     5.3409    21.8134    72.3735 </r>
       <r>     5.4270    24.0256    74.4425 </r>
       <r>     5.5131    17.1986    75.9236 </r>
       <r>     5.5992    18.2992    77.4994 </r>
       <r>     5.6853    20.2683    79.2448 </r>
       <r>     5.7714    16.0438    80.6265 </r>
       <r>     5.8576     4.3107    80.9977 </r>
       <r>     5.9437     0.0271    81.0000 </r>
       <r>     6.0298     0.0000    81.0000 </r>
       <r>     6.1159     0.0000    81.0000 </r>
       <r>     6.2020     0.0000    81.0000 </r>
       <r>     6.2881     0.0000    81.0000 </r>
       <r>     6.3743     0.0000    81.0000 </r>
       <r>     6.4604     0.0000    81.0000 </r>
       <r>     6.5465     0.0000    81.0000 </r>
       <r>     6.6326     0.0000    81.0000 </r>
       <r>     6.7187     0.0000    81.0000 </r>
       <r>     6.8048     0.0000    81.0000 </r>
       <r>     6.8909     0.0000    81.0000 </r>
       <r>     6.9771     0.0000    81.0000 </r>
       <r>     7.0632     0.0000    81.0000 </r>
       <r>     7.1493     0.0028    81.0002 </r>
       <r>     7.2354     1.6893    81.1457 </r>
       <r>     7.3215     9.0749    81.9272 </r>
       <r>     7.4076    10.5749    82.8379 </r>
       <r>     7.4938    22.2612    84.7549 </r>
       <r>     7.5799    14.9251    86.0402 </r>
       <r>     7.6660    15.6099    87.3844 </r>
       <r>     7.7521     7.6981    88.0474 </r>
       <r>     7.8382    14.9658    89.3362 </r>
       <r>     7.9243    17.5173    90.8447 </r>
       <r>     8.0105    19.3735    92.5130 </r>
       <r>     8.0966     5.6161    92.9967 </r>
       <r>     8.1827     0.0567    93.0016 </r>
       <r>     8.2688     5.3198    93.4597 </r>
       <r>     8.3549    16.9761    94.9216 </r>
       <r>     8.4410     8.1912    95.6270 </r>
       <r>     8.5271    13.3395    96.7757 </r>
       <r>     8.6133    12.4799    97.8504 </r>
       <r>     8.6994    22.5790    99.7948 </r>
       <r>     8.7855    19.7851   101.4986 </r>
       <r>     8.8716    23.8576   103.5531 </r>
       <r>     8.9577    24.2951   105.6453 </r>
       <r>     9.0438    28.8828   108.1326 </r>
       <r>     9.1300    24.0551   110.2041 </r>
       <r>     9.2161    19.9360   111.9209 </r>
       <r>     9.3022    22.3734   113.8476 </r>
       <r>     9.3883    19.9964   115.5696 </r>
       <r>     9.4744    20.5770   117.3416 </r>
       <r>     9.5605    27.2591   119.6891 </r>
       <r>     9.6466    17.0591   121.1581 </r>
       <r>     9.7328    11.2839   122.1298 </r>
       <r>     9.8189     9.4512   122.9437 </r>
       <r>     9.9050     9.4453   123.7571 </r>
       <r>     9.9911    16.5701   125.1841 </r>
       <r>    10.0772    15.7526   126.5406 </r>
       <r>    10.1633    23.1323   128.5327 </r>
       <r>    10.2495    18.1376   130.0946 </r>
       <r>    10.3356    25.8414   132.3199 </r>
       <r>    10.4217    19.9223   134.0356 </r>
       <r>    10.5078    14.9341   135.3216 </r>
       <r>    10.5939    21.5305   137.1757 </r>
       <r>    10.6800    22.3382   139.0994 </r>
       <r>    10.7662    22.6467   141.0496 </r>
       <r>    10.8523    20.0322   142.7747 </r>
       <r>    10.9384    19.3605   144.4420 </r>
       <r>    11.0245    11.1270   145.4002 </r>
       <r>    11.1106    11.0029   146.3477 </r>
       <r>    11.1967    10.2935   147.2341 </r>
       <r>    11.2828     8.6411   147.9783 </r>
       <r>    11.3690    12.4239   149.0482 </r>
       <r>    11.4551    21.3864   150.8899 </r>
       <r>    11.5412    13.5006   152.0525 </r>
       <r>    11.6273    25.8988   154.2828 </r>
       <r>    11.7134    17.1985   155.7638 </r>
       <r>    11.7995    16.2272   157.1612 </r>
       <r>    11.8857    25.4714   159.3547 </r>
       <r>    11.9718    27.4423   161.7179 </r>
       <r>    12.0579    25.1411   163.8830 </r>
       <r>    12.1440    19.6994   165.5794 </r>
       <r>    12.2301    17.4460   167.0818 </r>
       <r>    12.3162    17.2561   168.5678 </r>
       <r>    12.4023    10.6395   169.4840 </r>
       <r>    12.4885    14.5179   170.7342 </r>
       <r>    12.5746     3.0760   170.9991 </r>
       <r>    12.6607     1.3021   171.1113 </r>
       <r>    12.7468     9.0431   171.8900 </r>
       <r>    12.8329     5.2065   172.3384 </r>
       <r>    12.9190    13.3287   173.4862 </r>
       <r>    13.0052     6.0328   174.0057 </r>
       <r>    13.0913     8.0996   174.7032 </r>
       <r>    13.1774    17.0178   176.1687 </r>
       <r>    13.2635    10.5769   177.0795 </r>
       <r>    13.3496     9.4140   177.8902 </r>
       <r>    13.4357     3.0615   178.1539 </r>
       <r>    13.5219     8.9163   178.9217 </r>
       <r>    13.6080     1.7715   179.0743 </r>
       <r>    13.6941     9.4974   179.8921 </r>
       <r>    13.7802    15.7686   181.2501 </r>
       <r>    13.8663    19.6002   182.9380 </r>
       <r>    13.9524    16.0124   184.3169 </r>
       <r>    14.0385    13.0491   185.4406 </r>
       <r>    14.1247    18.1198   187.0010 </r>
       <r>    14.2108    12.9841   188.1191 </r>
       <r>    14.2969    24.0551   190.1907 </r>
       <r>    14.3830    27.6031   192.5677 </r>
       <r>    14.4691    20.9689   194.3735 </r>
       <r>    14.5552    17.5216   195.8824 </r>
       <r>    14.6414    19.7955   197.5871 </r>
       <r>    14.7275    24.4014   199.6884 </r>
       <r>    14.8136    22.0472   201.5870 </r>
       <r>    14.8997    22.3742   203.5138 </r>
       <r>    14.9858    28.4428   205.9632 </r>
       <r>    15.0719    30.4456   208.5850 </r>
       <r>    15.1580    20.2496   210.3288 </r>
       <r>    15.2442    13.5317   211.4941 </r>
       <r>    15.3303    28.1125   213.9150 </r>
       <r>    15.4164    25.4029   216.1026 </r>
       <r>    15.5025    21.1239   217.9217 </r>
       <r>    15.5886    35.4676   220.9760 </r>
       <r>    15.6747    22.3718   222.9026 </r>
       <r>    15.7609    24.7068   225.0302 </r>
       <r>    15.8470    35.3719   228.0763 </r>
       <r>    15.9331    27.7188   230.4633 </r>
       <r>    16.0192    33.1791   233.3206 </r>
       <r>    16.1053    17.1933   234.8012 </r>
       <r>    16.1914     8.5766   235.5398 </r>
       <r>    16.2776    23.2131   237.5388 </r>
       <r>    16.3637    16.7039   238.9772 </r>
       <r>    16.4498    16.5758   240.4047 </r>
       <r>    16.5359    17.1711   241.8834 </r>
       <r>    16.6220    22.4563   243.8172 </r>
       <r>    16.7081    12.1802   244.8661 </r>
       <r>    16.7942    15.4394   246.1957 </r>
       <r>    16.8804    15.9772   247.5716 </r>
       <r>    16.9665     9.0738   248.3530 </r>
       <r>    17.0526     8.5380   249.0882 </r>
       <r>    17.1387    10.7740   250.0160 </r>
       <r>    17.2248    10.3380   250.9063 </r>
       <r>    17.3109     1.0870   250.9999 </r>
       <r>    17.3971     0.0010   251.0000 </r>
       <r>    17.4832     0.0000   251.0000 </r>
       <r>    17.5693     0.0000   251.0000 </r>
       <r>    17.6554     0.0000   251.0000 </r>
       <r>    17.7415     0.0024   251.0002 </r>
       <r>    17.8276     1.6648   251.1436 </r>
       <r>    17.9138    14.4656   252.3893 </r>
       <r>    17.9999     6.9912   252.9913 </r>
       <r>    18.0860     0.1465   253.0040 </r>
       <r>    18.1721     6.8698   253.5956 </r>
       <r>    18.2582    15.5306   254.9330 </r>
       <r>    18.3443     6.7055   255.5104 </r>
       <r>    18.4304    16.6706   256.9460 </r>
       <r>    18.5166    12.9628   258.0623 </r>
       <r>    18.6027    11.0690   259.0155 </r>
       <r>    18.6888    17.9227   260.5590 </r>
       <r>    18.7749    19.7382   262.2587 </r>
       <r>    18.8610    14.8342   263.5362 </r>
       <r>    18.9471    20.0536   265.2631 </r>
       <r>    19.0333    30.5316   267.8924 </r>
       <r>    19.1194    38.7814   271.2321 </r>
       <r>    19.2055    30.2787   273.8395 </r>
       <r>    19.2916    29.5621   276.3853 </r>
       <r>    19.3777    22.7346   278.3431 </r>
       <r>    19.4638    31.7659   281.0786 </r>
       <r>    19.5499    27.7837   283.4712 </r>
       <r>    19.6361    39.2302   286.8496 </r>
       <r>    19.7222    25.4182   289.0385 </r>
       <r>    19.8083    21.9384   290.9277 </r>
       <r>    19.8944    25.6724   293.1385 </r>
       <r>    19.9805    22.6381   295.0880 </r>
       <r>    20.0666    22.8562   297.0563 </r>
       <r>    20.1528    21.8365   298.9368 </r>
       <r>    20.2389    25.3899   301.1232 </r>
       <r>    20.3250    12.3154   302.1838 </r>
       <r>    20.4111    11.0206   303.1328 </r>
       <r>    20.4972     9.3663   303.9394 </r>
       <r>    20.5833     0.7033   304.0000 </r>
       <r>    20.6695     0.0004   304.0000 </r>
       <r>    20.7556     0.0000   304.0000 </r>
       <r>    20.8417     0.0000   304.0000 </r>
       <r>    20.9278     0.0000   304.0000 </r>
       <r>    21.0139     0.0000   304.0000 </r>
       <r>    21.1000     0.0000   304.0000 </r>
       <r>    21.1861     0.0000   304.0000 </r>
       <r>    21.2723     0.0000   304.0000 </r>
       <r>    21.3584     0.0000   304.0000 </r>
       <r>    21.4445     0.0000   304.0000 </r>
       <r>    21.5306     0.0000   304.0000 </r>
       <r>    21.6167     0.0000   304.0000 </r>
      </set>
     </set>
    </array>
   </total>
  </dos>
 </calculation>
 <structure name="finalpos" >
  <crystal>
   <varray name="basis" >
    <v>      10.21149500       0.00000000       0.00000000 </v>
    <v>       0.00000000      10.21149500       0.00000000 </v>
    <v>       0.00000000       0.00000000      10.21149500 </v>
   </varray>
   <i name="volume">   1064.79986425 </i>
   <varray name="rec_basis" >
    <v>       0.09792885       0.00000000       0.00000000 </v>
    <v>       0.00000000       0.09792885       0.00000000 </v>
    <v>       0.00000000       0.00000000       0.09792885 </v>
   </varray>
  </crystal>
  <varray name="positions" >
   <v>       0.01036860       0.19426000       0.04229450 </v>
   <v>       0.21195800       0.71624300       0.52440900 </v>
   <v>       0.57437800       0.82037500       0.87819800 </v>
   <v>       0.20200200       0.40116200       0.32232300 </v>
   <v>       0.20301700       0.18891900       0.43594300 </v>
   <v>       0.62825300       0.32854300       0.23435300 </v>
   <v>       0.55817800       0.43497900       0.43315500 </v>
   <v>       0.79026200       0.37903700       0.97749500 </v>
   <v>       0.85367400       0.31482400       0.17012500 </v>
   <v>       0.94523800       0.52361100       0.45339700 </v>
   <v>       0.86317400       0.65235400       0.29043900 </v>
   <v>       0.40287300       0.28831200       0.28046100 </v>
   <v>       0.76105300       0.01900010       0.42673500 </v>
   <v>       0.64102300       0.94506000       0.10524600 </v>
   <v>       0.87277400       0.87067200       0.03365410 </v>
   <v>       0.21014900       0.82816400       0.08448220 </v>
   <v>       0.08019640       0.85462300       0.67562100 </v>
   <v>       0.60722700       0.05513260       0.89011400 </v>
   <v>       0.90998500       0.59853600       0.05956980 </v>
   <v>       0.62293000       0.09594580       0.27611600 </v>
   <v>       0.02906940       0.75141600       0.20040000 </v>
   <v>       0.51164200       0.63672100       0.80993800 </v>
   <v>       0.86731600       0.92578500       0.60699100 </v>
   <v>       0.91753700       0.50874100       0.86039200 </v>
   <v>       0.58067700       0.83670100       0.64123500 </v>
   <v>       0.71956400       0.73973500       0.12054600 </v>
   <v>       0.53368800       0.63667100       0.55888600 </v>
   <v>       0.78028900       0.88803700       0.82905900 </v>
   <v>       0.40517500       0.14257800       0.89514700 </v>
   <v>       0.37600500       0.79571100       0.65321100 </v>
   <v>       0.04387420       0.96850400       0.14067600 </v>
   <v>       0.41417600       0.92173000       0.00182856 </v>
   <v>       0.17732900       0.84611200       0.33229900 </v>
   <v>       0.60882300       0.86922400       0.30719800 </v>
   <v>       0.57291500       0.20807300       0.69352500 </v>
   <v>       0.51132300       0.40900300       0.68409900 </v>
   <v>       0.15599400       0.49732400       0.54683800 </v>
   <v>       0.92341700       0.38698800       0.65871200 </v>
   <v>       0.53620900       0.52983700       0.99874500 </v>
   <v>       0.22526600       0.04645580       0.23579300 </v>
   <v>       0.02041030       0.41091500       0.02344850 </v>
   <v>       0.33233500       0.54353800       0.65588800 </v>
   <v>       0.77169300       0.77203600       0.45876800 </v>
   <v>       0.73726900       0.65795600       0.90976600 </v>
   <v>       0.28992300       0.64691400       0.19972600 </v>
   <v>       0.43972800       0.10518100       0.14404100 </v>
   <v>       0.42874600       0.79086500       0.43280700 </v>
   <v>       0.21578200       0.66599100       0.78300600 </v>
   <v>       0.47660900       0.49829200       0.20860700 </v>
   <v>       0.01485200       0.30939600       0.45172500 </v>
   <v>       0.13245200       0.44358800       0.79651800 </v>
   <v>       0.35457200       0.56477800       0.41034400 </v>
   <v>       0.99027000       0.27738800       0.83946300 </v>
   <v>       0.22464100       0.06328100       0.01377470 </v>
   <v>       0.77402400       0.23420300       0.78117000 </v>
   <v>       0.12868400       0.28006700       0.62410000 </v>
   <v>       0.63788700       0.20311600       0.06138910 </v>
   <v>       0.13398800       0.61763900       0.35091900 </v>
   <v>       0.07907530       0.07086530       0.58234100 </v>
   <v>       0.77591000       0.72276900       0.68411200 </v>
   <v>       0.60070800       0.33606700       0.88058000 </v>
   <v>       0.94311000       0.73429000       0.85189200 </v>
   <v>       0.43394400       0.98729400       0.73965300 </v>
   <v>       0.97092200       0.99006700       0.40920800 </v>
   <v>       0.39256300       0.88365700       0.23299300 </v>
   <v>       0.34270400       0.47312000       0.90386600 </v>
   <v>       0.26077100       0.88469200       0.84054800 </v>
   <v>       0.00651722       0.17642300       0.27304500 </v>
   <v>       0.54715300       0.00463347       0.49680700 </v>
   <v>       0.50764400       0.72589400       0.14341900 </v>
   <v>       0.87293400       0.15449000       0.56227700 </v>
   <v>       0.71282200       0.52075200       0.14482600 </v>
   <v>       0.35238900       0.69409900       0.97438900 </v>
   <v>       0.76276600       0.23576500       0.38455000 </v>
   <v>       0.82708200       0.09492280       0.16213900 </v>
   <v>       0.35180700       0.35187900       0.50534900 </v>
   <v>       0.69167400       0.04258020       0.66309300 </v>
   <v>       0.31160700       0.30561500       0.75375000 </v>
   <v>       0.70625100       0.49810100       0.76062100 </v>
   <v>       0.44305200       0.30371500       0.05487570 </v>
   <v>       0.20812900       0.27766500       0.95008000 </v>
   <v>       0.94519500       0.04542660       0.76955800 </v>
   <v>       0.99352100       0.61583900       0.68082100 </v>
   <v>       0.53817700       0.21005600       0.47287000 </v>
   <v>       0.06936010       0.92071500       0.91052400 </v>
   <v>       0.85342500       0.87446700       0.26403700 </v>
   <v>       0.71197900       0.32484400       0.57689800 </v>
   <v>       0.12285500       0.62566200       0.99651200 </v>
   <v>       0.34359400       0.15615400       0.60080800 </v>
   <v>       0.16607800       0.10426600       0.78735800 </v>
   <v>       0.73534400       0.55568100       0.55335100 </v>
   <v>       0.00612933       0.76117100       0.48499200 </v>
   <v>       0.19116800       0.25003400       0.16986800 </v>
   <v>       0.24972900       0.95605900       0.51225400 </v>
   <v>       0.76649900       0.46077900       0.35802900 </v>
   <v>       0.39390200       0.06708810       0.36191100 </v>
   <v>       0.82137400       0.08383220       0.94739900 </v>
   <v>       0.60718900       0.65004600       0.33225600 </v>
   <v>       0.00242337       0.46304100       0.24768500 </v>
   <v>       0.23765700       0.46524100       0.10334400 </v>
  </varray>
 </structure>
</modeling>
