unknown system                          
           1
    10.211495    0.000000    0.000000
     0.000000   10.211495    0.000000
     0.000000    0.000000   10.211495
   Si
 100
Direct configuration=     1
   0.01036860  0.19426000  0.04229450
   0.21195800  0.71624300  0.52440900
   0.57437800  0.82037500  0.87819800
   0.20200200  0.40116200  0.32232300
   0.20301700  0.18891900  0.43594300
   0.62825300  0.32854300  0.23435300
   0.55817800  0.43497900  0.43315500
   0.79026200  0.37903700  0.97749500
   0.85367400  0.31482400  0.17012500
   0.94523800  0.52361100  0.45339700
   0.86317400  0.65235400  0.29043900
   0.40287300  0.28831200  0.28046100
   0.76105300  0.01900010  0.42673500
   0.64102300  0.94506000  0.10524600
   0.87277400  0.87067200  0.03365410
   0.21014900  0.82816400  0.08448220
   0.08019640  0.85462300  0.67562100
   0.60722700  0.05513260  0.89011400
   0.90998500  0.59853600  0.05956980
   0.62293000  0.09594580  0.27611600
   0.02906940  0.75141600  0.20040000
   0.51164200  0.63672100  0.80993800
   0.86731600  0.92578500  0.60699100
   0.91753700  0.50874100  0.86039200
   0.58067700  0.83670100  0.64123500
   0.71956400  0.73973500  0.12054600
   0.53368800  0.63667100  0.55888600
   0.78028900  0.88803700  0.82905900
   0.40517500  0.14257800  0.89514700
   0.37600500  0.79571100  0.65321100
   0.04387420  0.96850400  0.14067600
   0.41417600  0.92173000  0.00182856
   0.17732900  0.84611200  0.33229900
   0.60882300  0.86922400  0.30719800
   0.57291500  0.20807300  0.69352500
   0.51132300  0.40900300  0.68409900
   0.15599400  0.49732400  0.54683800
   0.92341700  0.38698800  0.65871200
   0.53620900  0.52983700  0.99874500
   0.22526600  0.04645580  0.23579300
   0.02041030  0.41091500  0.02344850
   0.33233500  0.54353800  0.65588800
   0.77169300  0.77203600  0.45876800
   0.73726900  0.65795600  0.90976600
   0.28992300  0.64691400  0.19972600
   0.43972800  0.10518100  0.14404100
   0.42874600  0.79086500  0.43280700
   0.21578200  0.66599100  0.78300600
   0.47660900  0.49829200  0.20860700
   0.01485200  0.30939600  0.45172500
   0.13245200  0.44358800  0.79651800
   0.35457200  0.56477800  0.41034400
   0.99027000  0.27738800  0.83946300
   0.22464100  0.06328100  0.01377470
   0.77402400  0.23420300  0.78117000
   0.12868400  0.28006700  0.62410000
   0.63788700  0.20311600  0.06138910
   0.13398800  0.61763900  0.35091900
   0.07907530  0.07086530  0.58234100
   0.77591000  0.72276900  0.68411200
   0.60070800  0.33606700  0.88058000
   0.94311000  0.73429000  0.85189200
   0.43394400  0.98729400  0.73965300
   0.97092200  0.99006700  0.40920800
   0.39256300  0.88365700  0.23299300
   0.34270400  0.47312000  0.90386600
   0.26077100  0.88469200  0.84054800
   0.00651722  0.17642300  0.27304500
   0.54715300  0.00463347  0.49680700
   0.50764400  0.72589400  0.14341900
   0.87293400  0.15449000  0.56227700
   0.71282200  0.52075200  0.14482600
   0.35238900  0.69409900  0.97438900
   0.76276600  0.23576500  0.38455000
   0.82708200  0.09492280  0.16213900
   0.35180700  0.35187900  0.50534900
   0.69167400  0.04258020  0.66309300
   0.31160700  0.30561500  0.75375000
   0.70625100  0.49810100  0.76062100
   0.44305200  0.30371500  0.05487570
   0.20812900  0.27766500  0.95008000
   0.94519500  0.04542660  0.76955800
   0.99352100  0.61583900  0.68082100
   0.53817700  0.21005600  0.47287000
   0.06936010  0.92071500  0.91052400
   0.85342500  0.87446700  0.26403700
   0.71197900  0.32484400  0.57689800
   0.12285500  0.62566200  0.99651200
   0.34359400  0.15615400  0.60080800
   0.16607800  0.10426600  0.78735800
   0.73534400  0.55568100  0.55335100
   0.00612933  0.76117100  0.48499200
   0.19116800  0.25003400  0.16986800
   0.24972900  0.95605900  0.51225400
   0.76649900  0.46077900  0.35802900
   0.39390200  0.06708810  0.36191100
   0.82137400  0.08383220  0.94739900
   0.60718900  0.65004600  0.33225600
   0.00242337  0.46304100  0.24768500
   0.23765700  0.46524100  0.10334400
