 100 100   0   0
  0.1064800E+02  0.1021150E-08  0.1021150E-08  0.1021150E-08  0.5000000E-15
  1.000000000000000E-004
  CAR 
 unknown system                          
     21.53948531     -4.31687349  301     14.65589112      1.00000000
     -4.317  0.0000E+00  0.0000E+00  0.0000E+00  0.0000E+00
     -4.231  0.0000E+00  0.0000E+00  0.0000E+00  0.0000E+00
     -4.144  0.0000E+00  0.0000E+00  0.0000E+00  0.0000E+00
     -4.058  0.0000E+00  0.0000E+00  0.0000E+00  0.0000E+00
     -3.972  0.0000E+00  0.0000E+00  0.0000E+00  0.0000E+00
     -3.886  0.0000E+00  0.0000E+00  0.0000E+00  0.0000E+00
     -3.800  0.0000E+00  0.0000E+00  0.0000E+00  0.0000E+00
     -3.714  0.0000E+00  0.0000E+00  0.0000E+00  0.0000E+00
     -3.627  0.0000E+00  0.0000E+00  0.0000E+00  0.0000E+00
     -3.541  0.0000E+00  0.0000E+00  0.0000E+00  0.0000E+00
     -3.455  0.0000E+00  0.0000E+00  0.0000E+00  0.0000E+00
     -3.369  0.7559E-09  0.7184E-09  0.6515E-10  0.6192E-10
     -3.283  0.3848E-03  0.3725E-03  0.3317E-04  0.3210E-04
     -3.196  0.7006E+00  0.6899E+00  0.6041E-01  0.5949E-01
     -3.110  0.8724E+01  0.8710E+01  0.8123E+00  0.8102E+00
     -3.024  0.2172E+01  0.2197E+01  0.9996E+00  0.9995E+00
     -2.938  0.5144E-02  0.5288E-02  0.1000E+01  0.1000E+01
     -2.852  0.4823E-07  0.5049E-07  0.1000E+01  0.1000E+01
     -2.765  0.1288E-14  0.1288E-14  0.1000E+01  0.1000E+01
     -2.679  0.0000E+00  0.0000E+00  0.1000E+01  0.1000E+01
     -2.593  0.0000E+00  0.0000E+00  0.1000E+01  0.1000E+01
     -2.507  0.0000E+00  0.0000E+00  0.1000E+01  0.1000E+01
     -2.421  0.0000E+00  0.0000E+00  0.1000E+01  0.1000E+01
     -2.335  0.6148E-09  0.5827E-09  0.1000E+01  0.1000E+01
     -2.248  0.3370E-03  0.3256E-03  0.1000E+01  0.1000E+01
     -2.162  0.6581E+00  0.6475E+00  0.1057E+01  0.1056E+01
     -2.076  0.8674E+01  0.8659E+01  0.1804E+01  0.1802E+01
     -1.990  0.4742E+01  0.4742E+01  0.2213E+01  0.2211E+01
     -1.904  0.8571E+01  0.8587E+01  0.2952E+01  0.2951E+01
     -1.817  0.4347E+01  0.4324E+01  0.3326E+01  0.3324E+01
     -1.731  0.9875E+01  0.9874E+01  0.4178E+01  0.4175E+01
     -1.645  0.8919E+01  0.8941E+01  0.4946E+01  0.4945E+01
     -1.559  0.4611E+01  0.4575E+01  0.5344E+01  0.5340E+01
     -1.473  0.1706E+02  0.1709E+02  0.6814E+01  0.6812E+01
     -1.386  0.2149E+01  0.2177E+01  0.7000E+01  0.7000E+01
     -1.300  0.3096E-02  0.3179E-02  0.7000E+01  0.7000E+01
     -1.214  0.2035E-07  0.2116E-07  0.7000E+01  0.7000E+01
     -1.128  0.3498E-03  0.3363E-03  0.7000E+01  0.7000E+01
     -1.042  0.6698E+00  0.6574E+00  0.7058E+01  0.7057E+01
     -0.956  0.8684E+01  0.8666E+01  0.7806E+01  0.7804E+01
     -0.869  0.2244E+01  0.2273E+01  0.8000E+01  0.8000E+01
     -0.783  0.6504E+00  0.6389E+00  0.8056E+01  0.8055E+01
     -0.697  0.1248E+02  0.1243E+02  0.9131E+01  0.9126E+01
     -0.611  0.9826E+01  0.9885E+01  0.9978E+01  0.9978E+01
     -0.525  0.3579E+01  0.3548E+01  0.1029E+02  0.1028E+02
     -0.438  0.2156E+02  0.2153E+02  0.1214E+02  0.1214E+02
     -0.352  0.1106E+02  0.1111E+02  0.1310E+02  0.1310E+02
     -0.266  0.1723E+02  0.1718E+02  0.1458E+02  0.1458E+02
     -0.180  0.1512E+02  0.1517E+02  0.1589E+02  0.1588E+02
     -0.094  0.1315E+01  0.1333E+01  0.1600E+02  0.1600E+02
     -0.007  0.3633E+00  0.3574E+00  0.1603E+02  0.1603E+02
      0.079  0.1057E+02  0.1051E+02  0.1694E+02  0.1694E+02
      0.165  0.2084E+02  0.2086E+02  0.1874E+02  0.1873E+02
      0.251  0.3037E+01  0.3080E+01  0.1900E+02  0.1900E+02
      0.337  0.5883E-02  0.6091E-02  0.1900E+02  0.1900E+02
      0.423  0.5273E-07  0.5587E-07  0.1900E+02  0.1900E+02
      0.510  0.2163E-08  0.2037E-08  0.1900E+02  0.1900E+02
      0.596  0.7535E-03  0.7255E-03  0.1900E+02  0.1900E+02
      0.682  0.9970E+00  0.9797E+00  0.1909E+02  0.1908E+02
      0.768  0.1364E+02  0.1359E+02  0.2026E+02  0.2026E+02
      0.854  0.1436E+02  0.1437E+02  0.2150E+02  0.2149E+02
      0.941  0.1516E+02  0.1518E+02  0.2281E+02  0.2280E+02
      1.027  0.8540E+01  0.8542E+01  0.2354E+02  0.2354E+02
      1.113  0.1178E+02  0.1177E+02  0.2456E+02  0.2455E+02
      1.199  0.5200E+01  0.5233E+01  0.2500E+02  0.2500E+02
      1.285  0.8275E+01  0.8205E+01  0.2572E+02  0.2571E+02
      1.372  0.1411E+02  0.1417E+02  0.2693E+02  0.2693E+02
      1.458  0.7604E+00  0.7750E+00  0.2700E+02  0.2700E+02
      1.544  0.3771E-03  0.3919E-03  0.2700E+02  0.2700E+02
      1.630  0.7199E-09  0.7643E-09  0.2700E+02  0.2700E+02
      1.716  0.0000E+00  0.0000E+00  0.2700E+02  0.2700E+02
      1.802  0.0000E+00  0.0000E+00  0.2700E+02  0.2700E+02
      1.889  0.4758E-11  0.4520E-11  0.2700E+02  0.2700E+02
      1.975  0.1368E-04  0.1322E-04  0.2700E+02  0.2700E+02
      2.061  0.1307E+00  0.1283E+00  0.2701E+02  0.2701E+02
      2.147  0.7101E+01  0.7060E+01  0.2762E+02  0.2762E+02
      2.233  0.1821E+02  0.1819E+02  0.2919E+02  0.2919E+02
      2.320  0.1443E+02  0.1445E+02  0.3044E+02  0.3043E+02
      2.406  0.6479E+01  0.6515E+01  0.3099E+02  0.3099E+02
      2.492  0.5224E+01  0.5185E+01  0.3144E+02  0.3144E+02
      2.578  0.1276E+02  0.1276E+02  0.3254E+02  0.3254E+02
      2.664  0.5227E+01  0.5274E+01  0.3300E+02  0.3299E+02
      2.751  0.5751E-01  0.5920E-01  0.3300E+02  0.3300E+02
      2.837  0.5109E-05  0.5168E-05  0.3300E+02  0.3300E+02
      2.923  0.4616E-01  0.4484E-01  0.3300E+02  0.3300E+02
      3.009  0.4763E+01  0.4720E+01  0.3341E+02  0.3341E+02
      3.095  0.7109E+01  0.7142E+01  0.3403E+02  0.3403E+02
      3.181  0.1036E+02  0.1032E+02  0.3492E+02  0.3492E+02
      3.268  0.1962E+02  0.1961E+02  0.3661E+02  0.3661E+02
      3.354  0.1779E+02  0.1779E+02  0.3814E+02  0.3814E+02
      3.440  0.2055E+02  0.2055E+02  0.3992E+02  0.3991E+02
      3.526  0.1439E+02  0.1440E+02  0.4116E+02  0.4115E+02
      3.612  0.2003E+02  0.2001E+02  0.4288E+02  0.4288E+02
      3.699  0.1857E+02  0.1855E+02  0.4448E+02  0.4448E+02
      3.785  0.2707E+02  0.2706E+02  0.4681E+02  0.4681E+02
      3.871  0.2125E+02  0.2125E+02  0.4865E+02  0.4864E+02
      3.957  0.2250E+02  0.2252E+02  0.5058E+02  0.5058E+02
      4.043  0.1120E+02  0.1119E+02  0.5155E+02  0.5154E+02
      4.130  0.1824E+02  0.1825E+02  0.5312E+02  0.5312E+02
      4.216  0.2026E+02  0.2026E+02  0.5487E+02  0.5486E+02
      4.302  0.1315E+02  0.1318E+02  0.5600E+02  0.5600E+02
      4.388  0.1001E+02  0.1002E+02  0.5686E+02  0.5686E+02
      4.474  0.4940E+01  0.4927E+01  0.5729E+02  0.5729E+02
      4.560  0.8234E+01  0.8254E+01  0.5800E+02  0.5800E+02
      4.647  0.1305E+02  0.1299E+02  0.5912E+02  0.5912E+02
      4.733  0.1572E+02  0.1574E+02  0.6048E+02  0.6048E+02
      4.819  0.9470E+01  0.9466E+01  0.6130E+02  0.6129E+02
      4.905  0.2206E+02  0.2203E+02  0.6320E+02  0.6319E+02
      4.991  0.2458E+02  0.2457E+02  0.6531E+02  0.6531E+02
      5.078  0.1758E+02  0.1763E+02  0.6683E+02  0.6683E+02
      5.164  0.1439E+02  0.1436E+02  0.6807E+02  0.6806E+02
      5.250  0.2141E+02  0.2142E+02  0.6991E+02  0.6991E+02
      5.336  0.1885E+02  0.1883E+02  0.7154E+02  0.7153E+02
      5.422  0.2645E+02  0.2645E+02  0.7382E+02  0.7381E+02
      5.509  0.1408E+02  0.1414E+02  0.7503E+02  0.7503E+02
      5.595  0.1772E+02  0.1765E+02  0.7656E+02  0.7655E+02
      5.681  0.1924E+02  0.1929E+02  0.7822E+02  0.7821E+02
      5.767  0.1473E+02  0.1474E+02  0.7949E+02  0.7948E+02
      5.853  0.6780E+01  0.6813E+01  0.8007E+02  0.8007E+02
      5.939  0.8993E+01  0.8987E+01  0.8085E+02  0.8085E+02
      6.026  0.1761E+01  0.1782E+01  0.8100E+02  0.8100E+02
      6.112  0.3070E-02  0.3160E-02  0.8100E+02  0.8100E+02
      6.198  0.2068E-07  0.2167E-07  0.8100E+02  0.8100E+02
      6.284  0.0000E+00  0.0000E+00  0.8100E+02  0.8100E+02
      6.370  0.0000E+00  0.0000E+00  0.8100E+02  0.8100E+02
      6.457  0.0000E+00  0.0000E+00  0.8100E+02  0.8100E+02
      6.543  0.0000E+00  0.0000E+00  0.8100E+02  0.8100E+02
      6.629  0.0000E+00  0.0000E+00  0.8100E+02  0.8100E+02
      6.715  0.0000E+00  0.0000E+00  0.8100E+02  0.8100E+02
      6.801  0.0000E+00  0.0000E+00  0.8100E+02  0.8100E+02
      6.888  0.6054E-13  0.5732E-13  0.8100E+02  0.8100E+02
      6.974  0.6868E-06  0.6599E-06  0.8100E+02  0.8100E+02
      7.060  0.2474E-01  0.2418E-01  0.8100E+02  0.8100E+02
      7.146  0.4071E+01  0.4037E+01  0.8135E+02  0.8135E+02
      7.232  0.1604E+02  0.1602E+02  0.8274E+02  0.8273E+02
      7.318  0.1367E+02  0.1371E+02  0.8391E+02  0.8391E+02
      7.405  0.3365E+01  0.3355E+01  0.8420E+02  0.8420E+02
      7.491  0.1690E+02  0.1685E+02  0.8566E+02  0.8565E+02
      7.577  0.2447E+02  0.2451E+02  0.8777E+02  0.8777E+02
      7.663  0.9653E+01  0.9646E+01  0.8860E+02  0.8860E+02
      7.749  0.1659E+02  0.1656E+02  0.9003E+02  0.9002E+02
      7.836  0.1936E+02  0.1939E+02  0.9170E+02  0.9170E+02
      7.922  0.9709E+01  0.9713E+01  0.9254E+02  0.9253E+02
      8.008  0.5313E+01  0.5353E+01  0.9299E+02  0.9299E+02
      8.094  0.1950E+01  0.1926E+01  0.9316E+02  0.9316E+02
      8.180  0.1228E+02  0.1226E+02  0.9422E+02  0.9422E+02
      8.267  0.1200E+02  0.1201E+02  0.9526E+02  0.9525E+02
      8.353  0.1505E+02  0.1504E+02  0.9655E+02  0.9655E+02
      8.439  0.1400E+02  0.1400E+02  0.9776E+02  0.9775E+02
      8.525  0.1488E+02  0.1489E+02  0.9904E+02  0.9904E+02
      8.611  0.1338E+02  0.1337E+02  0.1002E+03  0.1002E+03
      8.697  0.2093E+02  0.2090E+02  0.1020E+03  0.1020E+03
      8.784  0.1856E+02  0.1856E+02  0.1036E+03  0.1036E+03
      8.870  0.2299E+02  0.2299E+02  0.1056E+03  0.1056E+03
      8.956  0.1765E+02  0.1767E+02  0.1071E+03  0.1071E+03
      9.042  0.2486E+02  0.2484E+02  0.1092E+03  0.1092E+03
      9.128  0.1846E+02  0.1850E+02  0.1108E+03  0.1108E+03
      9.215  0.1840E+02  0.1835E+02  0.1124E+03  0.1124E+03
      9.301  0.2761E+02  0.2764E+02  0.1148E+03  0.1148E+03
      9.387  0.1713E+02  0.1713E+02  0.1163E+03  0.1163E+03
      9.473  0.2412E+02  0.2410E+02  0.1184E+03  0.1183E+03
      9.559  0.1168E+02  0.1172E+02  0.1194E+03  0.1194E+03
      9.646  0.1620E+02  0.1619E+02  0.1208E+03  0.1208E+03
      9.732  0.1815E+02  0.1814E+02  0.1223E+03  0.1223E+03
      9.818  0.1432E+02  0.1433E+02  0.1236E+03  0.1236E+03
      9.904  0.1455E+02  0.1452E+02  0.1248E+03  0.1248E+03
      9.990  0.1453E+02  0.1458E+02  0.1261E+03  0.1261E+03
     10.076  0.1881E+02  0.1874E+02  0.1277E+03  0.1277E+03
     10.163  0.1711E+02  0.1716E+02  0.1292E+03  0.1292E+03
     10.249  0.2031E+02  0.2026E+02  0.1309E+03  0.1309E+03
     10.335  0.2659E+02  0.2662E+02  0.1332E+03  0.1332E+03
     10.421  0.1729E+02  0.1729E+02  0.1347E+03  0.1347E+03
     10.507  0.1705E+02  0.1706E+02  0.1362E+03  0.1362E+03
     10.594  0.1719E+02  0.1715E+02  0.1376E+03  0.1376E+03
     10.680  0.2707E+02  0.2709E+02  0.1400E+03  0.1400E+03
     10.766  0.1986E+02  0.1984E+02  0.1417E+03  0.1417E+03
     10.852  0.2756E+02  0.2757E+02  0.1441E+03  0.1441E+03
     10.938  0.1963E+02  0.1965E+02  0.1458E+03  0.1457E+03
     11.025  0.1660E+02  0.1663E+02  0.1472E+03  0.1472E+03
     11.111  0.8918E+01  0.8946E+01  0.1480E+03  0.1480E+03
     11.197  0.1342E+01  0.1340E+01  0.1481E+03  0.1481E+03
     11.283  0.9088E+01  0.9071E+01  0.1489E+03  0.1488E+03
     11.369  0.1062E+02  0.1059E+02  0.1498E+03  0.1498E+03
     11.456  0.1717E+02  0.1717E+02  0.1512E+03  0.1512E+03
     11.542  0.2405E+02  0.2402E+02  0.1533E+03  0.1533E+03
     11.628  0.2630E+02  0.2631E+02  0.1556E+03  0.1556E+03
     11.714  0.2136E+02  0.2134E+02  0.1574E+03  0.1574E+03
     11.800  0.2180E+02  0.2183E+02  0.1593E+03  0.1593E+03
     11.886  0.2260E+02  0.2256E+02  0.1613E+03  0.1612E+03
     11.973  0.1967E+02  0.1972E+02  0.1629E+03  0.1629E+03
     12.059  0.1418E+02  0.1417E+02  0.1642E+03  0.1642E+03
     12.145  0.1962E+02  0.1963E+02  0.1659E+03  0.1659E+03
     12.231  0.1908E+02  0.1905E+02  0.1675E+03  0.1675E+03
     12.317  0.1701E+02  0.1703E+02  0.1690E+03  0.1690E+03
     12.404  0.1866E+02  0.1867E+02  0.1706E+03  0.1706E+03
     12.490  0.4833E+01  0.4882E+01  0.1710E+03  0.1710E+03
     12.576  0.7385E+00  0.7269E+00  0.1711E+03  0.1711E+03
     12.662  0.8737E+01  0.8721E+01  0.1718E+03  0.1718E+03
     12.748  0.2249E+01  0.2274E+01  0.1720E+03  0.1720E+03
     12.835  0.5960E+01  0.5922E+01  0.1725E+03  0.1725E+03
     12.921  0.7519E+01  0.7537E+01  0.1732E+03  0.1732E+03
     13.007  0.8917E+01  0.8928E+01  0.1739E+03  0.1739E+03
     13.093  0.5604E+01  0.5575E+01  0.1744E+03  0.1744E+03
     13.179  0.6765E+01  0.6799E+01  0.1750E+03  0.1750E+03
     13.265  0.9870E+01  0.9815E+01  0.1759E+03  0.1758E+03
     13.352  0.2295E+02  0.2296E+02  0.1778E+03  0.1778E+03
     13.438  0.1237E+02  0.1238E+02  0.1789E+03  0.1789E+03
     13.524  0.1199E+02  0.1199E+02  0.1799E+03  0.1799E+03
     13.610  0.1104E+02  0.1105E+02  0.1809E+03  0.1809E+03
     13.696  0.1487E+02  0.1483E+02  0.1822E+03  0.1822E+03
     13.783  0.1358E+02  0.1361E+02  0.1833E+03  0.1833E+03
     13.869  0.1660E+02  0.1657E+02  0.1848E+03  0.1848E+03
     13.955  0.1968E+02  0.1969E+02  0.1865E+03  0.1865E+03
     14.041  0.1251E+02  0.1252E+02  0.1875E+03  0.1875E+03
     14.127  0.2089E+02  0.2088E+02  0.1893E+03  0.1893E+03
     14.214  0.2004E+02  0.2005E+02  0.1911E+03  0.1911E+03
     14.300  0.2426E+02  0.2424E+02  0.1932E+03  0.1932E+03
     14.386  0.2475E+02  0.2477E+02  0.1953E+03  0.1953E+03
     14.472  0.1475E+02  0.1475E+02  0.1966E+03  0.1966E+03
     14.558  0.1901E+02  0.1900E+02  0.1982E+03  0.1982E+03
     14.644  0.1814E+02  0.1798E+02  0.1998E+03  0.1997E+03
     14.731  0.2304E+02  0.2315E+02  0.2018E+03  0.2017E+03
     14.817  0.2898E+02  0.2900E+02  0.2042E+03  0.2042E+03
     14.903  0.2007E+02  0.2009E+02  0.2060E+03  0.2060E+03
     14.989  0.2037E+02  0.2038E+02  0.2077E+03  0.2077E+03
     15.075  0.1541E+02  0.1541E+02  0.2091E+03  0.2091E+03
     15.162  0.2027E+02  0.2026E+02  0.2108E+03  0.2108E+03
     15.248  0.2414E+02  0.2411E+02  0.2129E+03  0.2129E+03
     15.334  0.2517E+02  0.2519E+02  0.2151E+03  0.2151E+03
     15.420  0.3006E+02  0.3002E+02  0.2177E+03  0.2176E+03
     15.506  0.2688E+02  0.2692E+02  0.2200E+03  0.2200E+03
     15.593  0.2180E+02  0.2182E+02  0.2218E+03  0.2218E+03
     15.679  0.1715E+02  0.1715E+02  0.2233E+03  0.2233E+03
     15.765  0.1966E+02  0.1964E+02  0.2250E+03  0.2250E+03
     15.851  0.2521E+02  0.2519E+02  0.2272E+03  0.2272E+03
     15.937  0.2646E+02  0.2649E+02  0.2295E+03  0.2295E+03
     16.023  0.1905E+02  0.1905E+02  0.2311E+03  0.2311E+03
     16.110  0.2255E+02  0.2255E+02  0.2331E+03  0.2331E+03
     16.196  0.2669E+02  0.2667E+02  0.2354E+03  0.2353E+03
     16.282  0.2380E+02  0.2384E+02  0.2374E+03  0.2374E+03
     16.368  0.1784E+02  0.1785E+02  0.2389E+03  0.2389E+03
     16.454  0.1585E+02  0.1585E+02  0.2403E+03  0.2403E+03
     16.541  0.1873E+02  0.1871E+02  0.2419E+03  0.2419E+03
     16.627  0.1513E+02  0.1516E+02  0.2432E+03  0.2432E+03
     16.713  0.2147E+02  0.2142E+02  0.2451E+03  0.2451E+03
     16.799  0.2428E+02  0.2431E+02  0.2472E+03  0.2472E+03
     16.885  0.1731E+02  0.1731E+02  0.2487E+03  0.2487E+03
     16.972  0.1471E+02  0.1477E+02  0.2499E+03  0.2499E+03
     17.058  0.8397E+00  0.8513E+00  0.2500E+03  0.2500E+03
     17.144  0.5694E+01  0.5653E+01  0.2505E+03  0.2505E+03
     17.230  0.5737E+01  0.5778E+01  0.2510E+03  0.2510E+03
     17.316  0.8689E-01  0.8916E-01  0.2510E+03  0.2510E+03
     17.402  0.6453E-05  0.6766E-05  0.2510E+03  0.2510E+03
     17.489  0.1569E-11  0.1681E-11  0.2510E+03  0.2510E+03
     17.575  0.4817E-10  0.4626E-10  0.2510E+03  0.2510E+03
     17.661  0.6413E-04  0.6244E-04  0.2510E+03  0.2510E+03
     17.747  0.2920E+00  0.2880E+00  0.2510E+03  0.2510E+03
     17.833  0.8401E+01  0.8369E+01  0.2517E+03  0.2517E+03
     17.920  0.1252E+02  0.1252E+02  0.2528E+03  0.2528E+03
     18.006  0.9737E+01  0.9700E+01  0.2537E+03  0.2537E+03
     18.092  0.1454E+02  0.1459E+02  0.2549E+03  0.2549E+03
     18.178  0.1361E+01  0.1371E+01  0.2550E+03  0.2550E+03
     18.264  0.1157E+02  0.1152E+02  0.2560E+03  0.2560E+03
     18.351  0.1158E+02  0.1162E+02  0.2570E+03  0.2570E+03
     18.437  0.1124E+02  0.1120E+02  0.2580E+03  0.2580E+03
     18.523  0.2612E+02  0.2607E+02  0.2603E+03  0.2602E+03
     18.609  0.1926E+02  0.1934E+02  0.2619E+03  0.2619E+03
     18.695  0.1283E+02  0.1275E+02  0.2630E+03  0.2630E+03
     18.781  0.3152E+02  0.3153E+02  0.2657E+03  0.2657E+03
     18.868  0.2064E+02  0.2063E+02  0.2675E+03  0.2675E+03
     18.954  0.3418E+02  0.3418E+02  0.2705E+03  0.2705E+03
     19.040  0.2393E+02  0.2393E+02  0.2725E+03  0.2725E+03
     19.126  0.3282E+02  0.3281E+02  0.2754E+03  0.2753E+03
     19.212  0.2518E+02  0.2518E+02  0.2775E+03  0.2775E+03
     19.299  0.2860E+02  0.2860E+02  0.2800E+03  0.2800E+03
     19.385  0.2258E+02  0.2260E+02  0.2819E+03  0.2819E+03
     19.471  0.2601E+02  0.2598E+02  0.2842E+03  0.2842E+03
     19.557  0.3359E+02  0.3360E+02  0.2871E+03  0.2871E+03
     19.643  0.2975E+02  0.2970E+02  0.2896E+03  0.2896E+03
     19.730  0.2021E+02  0.2025E+02  0.2914E+03  0.2914E+03
     19.816  0.2258E+02  0.2266E+02  0.2933E+03  0.2933E+03
     19.902  0.2043E+02  0.1992E+02  0.2951E+03  0.2950E+03
     19.988  0.3113E+02  0.3065E+02  0.2978E+03  0.2977E+03
     20.074  0.9522E+01  0.1263E+02  0.2986E+03  0.2988E+03
     20.160  0.2566E+02  0.2006E+02  0.3008E+03  0.3005E+03
     20.247  0.1557E+02  0.1638E+02  0.3021E+03  0.3019E+03
     20.333  0.1493E+02  0.1034E+02  0.3034E+03  0.3028E+03
     20.419  0.6588E+01  0.1322E+02  0.3040E+03  0.3039E+03
     20.505  0.8802E-01  0.7390E+00  0.3040E+03  0.3040E+03
     20.591  0.6531E-05  0.3863E-03  0.3040E+03  0.3040E+03
     20.678  0.1596E-11  0.7561E-09  0.3040E+03  0.3040E+03
     20.764  0.0000E+00  0.0000E+00  0.3040E+03  0.3040E+03
     20.850  0.0000E+00  0.0000E+00  0.3040E+03  0.3040E+03
     20.936  0.0000E+00  0.0000E+00  0.3040E+03  0.3040E+03
     21.022  0.0000E+00  0.0000E+00  0.3040E+03  0.3040E+03
     21.109  0.0000E+00  0.0000E+00  0.3040E+03  0.3040E+03
     21.195  0.0000E+00  0.0000E+00  0.3040E+03  0.3040E+03
     21.281  0.0000E+00  0.0000E+00  0.3040E+03  0.3040E+03
     21.367  0.0000E+00  0.0000E+00  0.3040E+03  0.3040E+03
     21.453  0.0000E+00  0.0000E+00  0.3040E+03  0.3040E+03
     21.539  0.0000E+00  0.0000E+00  0.3040E+03  0.3040E+03
