  100  100    1    2
  0.1064800E+02  0.1021149E-08  0.1021149E-08  0.1021149E-08  0.5000000E-15
  1.000000000000000E-004
  CAR 
 unknown system                          
    400      1    304
 
  0.0000000E+00  0.0000000E+00  0.0000000E+00  0.1000000E+01
    1       -3.141584     -3.141311   1.000000   1.000000
    2       -2.106222     -2.105935   1.000000   1.000000
    3       -1.961727     -1.961455   1.000000   1.000000
    4       -1.801476     -1.801206   1.000000   1.000000
    5       -1.701612     -1.701302   1.000000   1.000000
    6       -1.536455     -1.536118   1.000000   1.000000
    7       -1.509335     -1.509089   1.000000   1.000000
    8       -0.986091     -0.985761   1.000000   1.000000
    9       -0.726183     -0.725872   1.000000   1.000000
   10       -0.681988     -0.681683   1.000000   1.000000
   11       -0.497937     -0.497682   1.000000   1.000000
   12       -0.469081     -0.468810   1.000000   1.000000
   13       -0.427982     -0.427670   1.000000   1.000000
   14       -0.307130     -0.306919   1.000000   1.000000
   15       -0.274313     -0.274029   1.000000   1.000000
   16       -0.223315     -0.223029   1.000000   1.000000
   17        0.058589      0.058848   1.000000   1.000000
   18        0.112785      0.113056   1.000000   1.000000
   19        0.133943      0.134290   1.000000   1.000000
   20        0.731148      0.731478   1.000000   1.000000
   21        0.776865      0.777150   1.000000   1.000000
   22        0.858348      0.858624   1.000000   1.000000
   23        0.910033      0.910372   1.000000   1.000000
   24        1.024059      1.024292   1.000000   1.000000
   25        1.107405      1.107683   1.000000   1.000000
   26        1.282840      1.283189   1.000000   1.000000
   27        1.316410      1.316732   1.000000   1.000000
   28        2.141717      2.141966   1.000000   1.000000
   29        2.202679      2.202949   1.000000   1.000000
   30        2.243783      2.244082   1.000000   1.000000
   31        2.323814      2.324092   1.000000   1.000000
   32        2.497862      2.498167   1.000000   1.000000
   33        2.573164      2.573519   1.000000   1.000000
   34        3.016735      3.017082   1.000000   1.000000
   35        3.157156      3.157407   1.000000   1.000000
   36        3.217938      3.218241   1.000000   1.000000
   37        3.258454      3.258702   1.000000   1.000000
   38        3.315536      3.315794   1.000000   1.000000
   39        3.377530      3.377795   1.000000   1.000000
   40        3.418208      3.418405   1.000000   1.000000
   41        3.467070      3.467355   1.000000   1.000000
   42        3.563058      3.563362   1.000000   1.000000
   43        3.582836      3.583165   1.000000   1.000000
   44        3.647418      3.647695   1.000000   1.000000
   45        3.707146      3.707453   1.000000   1.000000
   46        3.742430      3.742752   1.000000   1.000000
   47        3.758825      3.759126   1.000000   1.000000
   48        3.819097      3.819406   1.000000   1.000000
   49        3.867640      3.867928   1.000000   1.000000
   50        3.906319      3.906621   1.000000   1.000000
   51        3.942364      3.942698   1.000000   1.000000
   52        4.052810      4.053107   1.000000   1.000000
   53        4.078863      4.079186   1.000000   1.000000
   54        4.165434      4.165708   1.000000   1.000000
   55        4.185222      4.185465   1.000000   1.000000
   56        4.253919      4.254229   1.000000   1.000000
   57        4.349396      4.349656   1.000000   1.000000
   58        4.493801      4.494095   1.000000   1.000000
   59        4.629753      4.630019   1.000000   1.000000
   60        4.652573      4.652865   1.000000   1.000000
   61        4.733562      4.733887   1.000000   1.000000
   62        4.850702      4.851001   1.000000   1.000000
   63        4.861286      4.861611   1.000000   1.000000
   64        4.921619      4.921951   1.000000   1.000000
   65        4.970908      4.971201   1.000000   1.000000
   66        4.985411      4.985695   1.000000   1.000000
   67        5.048680      5.048992   1.000000   1.000000
   68        5.138942      5.139204   1.000000   1.000000
   69        5.186786      5.187108   1.000000   1.000000
   70        5.220696      5.220990   1.000000   1.000000
   71        5.286306      5.286611   1.000000   1.000000
   72        5.343804      5.344115   1.000000   1.000000
   73        5.367617      5.367903   1.000000   1.000000
   74        5.410830      5.411141   1.000000   1.000000
   75        5.444433      5.444755   1.000000   1.000000
   76        5.563847      5.564166   1.000000   1.000000
   77        5.588792      5.589102   1.000000   1.000000
   78        5.626602      5.626953   1.000000   1.000000
   79        5.701783      5.702107   1.000000   1.000000
   80        5.765263      5.765567   1.000000   1.000000
   81        5.903146      5.903420   1.000000   1.000000
   82        7.160977      7.161235   1.000000   1.000000
   83        7.222247      7.222508   1.000000   1.000000
   84        7.269607      7.269896   1.000000   1.000000
   85        7.434711      7.434978   1.000000   1.000000
   86        7.494216      7.494502   1.000000   1.000000
   87        7.522419      7.522673   1.000000   1.000000
   88        7.543393      7.543678   1.000000   1.000000
   89        7.657957      7.658232   1.000000   1.000000
   90        7.724364      7.724698   1.000000   1.000000
   91        7.774268      7.774628   1.000000   1.000000
   92        7.813678      7.813973   1.000000   1.000000
   93        7.918445      7.918759   1.000000   1.000000
   94        8.129154      8.129466   1.000000   1.000000
   95        8.199567      8.199851   1.000000   1.000000
   96        8.287915      8.288173   1.000000   1.000000
   97        8.347118      8.347434   1.000000   1.000000
   98        8.423643      8.423922   1.000000   1.000000
   99        8.485058      8.485366   1.000000   1.000000
  100        8.558660      8.558947   1.000000   1.000000
  101        8.636148      8.636436   1.000000   1.000000
  102        8.685320      8.685627   1.000000   1.000000
  103        8.706570      8.706814   1.000000   1.000000
  104        8.786025      8.786387   1.000000   1.000000
  105        8.823420      8.823726   1.000000   1.000000
  106        8.864742      8.865023   1.000000   1.000000
  107        8.910603      8.910904   1.000000   1.000000
  108        8.994585      8.994909   1.000000   1.000000
  109        9.010948      9.011197   1.000000   1.000000
  110        9.044322      9.044573   1.000000   1.000000
  111        9.102755      9.103053   1.000000   1.000000
  112        9.179657      9.179965   1.000000   1.000000
  113        9.223169      9.223471   1.000000   1.000000
  114        9.255602      9.255912   1.000000   1.000000
  115        9.271151      9.271458   1.000000   1.000000
  116        9.343392      9.343642   1.000000   1.000000
  117        9.402396      9.402691   1.000000   1.000000
  118        9.450340      9.450617   1.000000   1.000000
  119        9.460965      9.461358   1.000000   1.000000
  120        9.574049      9.574339   1.000000   1.000000
  121        9.627450      9.627754   1.000000   1.000000
  122        9.695505      9.695781   1.000000   1.000000
  123        9.734726      9.734980   1.000000   1.000000
  124        9.812885      9.813192   1.000000   1.000000
  125        9.902462      9.902732   1.000000   1.000000
  126        9.922981      9.923317   1.000000   1.000000
  127       10.039278     10.039578   1.000000   1.000000
  128       10.067518     10.067848   1.000000   1.000000
  129       10.102653     10.102981   1.000000   1.000000
  130       10.192924     10.193235   1.000000   1.000000
  131       10.246584     10.246824   1.000000   1.000000
  132       10.264828     10.265130   1.000000   1.000000
  133       10.291868     10.292126   1.000000   1.000000
  134       10.351095     10.351417   1.000000   1.000000
  135       10.411216     10.411491   1.000000   1.000000
  136       10.466394     10.466680   1.000000   1.000000
  137       10.527844     10.528137   1.000000   1.000000
  138       10.602549     10.602885   1.000000   1.000000
  139       10.623016     10.623383   1.000000   1.000000
  140       10.646056     10.646344   1.000000   1.000000
  141       10.708759     10.709078   1.000000   1.000000
  142       10.769437     10.769771   1.000000   1.000000
  143       10.792265     10.792536   1.000000   1.000000
  144       10.825108     10.825406   1.000000   1.000000
  145       10.867729     10.868071   1.000000   1.000000
  146       10.938790     10.939074   1.000000   1.000000
  147       10.958796     10.959053   1.000000   1.000000
  148       11.051406     11.051715   1.000000   1.000000
  149       11.249364     11.249635   1.000000   1.000000
  150       11.354343     11.354681   1.000000   1.000000
  151       11.414288     11.414588   1.000000   1.000000
  152       11.470679     11.470935   1.000000   1.000000
  153       11.524423     11.524675   1.000000   1.000000
  154       11.535995     11.536278   1.000000   1.000000
  155       11.598296     11.598606   1.000000   1.000000
  156       11.605324     11.605640   1.000000   1.000000
  157       11.686281     11.686603   1.000000   1.000000
  158       11.716304     11.716584   1.000000   1.000000
  159       11.748194     11.748470   1.000000   1.000000
  160       11.813532     11.813827   1.000000   1.000000
  161       11.870667     11.870971   1.000000   1.000000
  162       11.884441     11.884774   1.000000   1.000000
  163       11.936584     11.936913   1.000000   1.000000
  164       12.015897     12.016219   1.000000   1.000000
  165       12.087723     12.088025   1.000000   1.000000
  166       12.109191     12.109524   1.000000   1.000000
  167       12.204535     12.204852   1.000000   1.000000
  168       12.214446     12.214791   1.000000   1.000000
  169       12.289204     12.289520   1.000000   1.000000
  170       12.351419     12.351745   1.000000   1.000000
  171       12.389774     12.390066   1.000000   1.000000
  172       12.630536     12.630847   1.000000   1.000000
  173       12.832609     12.832921   1.000000   1.000000
  174       12.953577     12.953823   1.000000   1.000000
  175       13.100080     13.100403   1.000000   1.000000
  176       13.254480     13.254712   1.000000   1.000000
  177       13.301799     13.302079   1.000000   1.000000
  178       13.314814     13.315040   1.000000   1.000000
  179       13.405489     13.405789   1.000000   1.000000
  180       13.487604     13.487912   1.000000   1.000000
  181       13.572652     13.572938   1.000000   1.000000
  182       13.682838     13.683116   1.000000   1.000000
  183       13.695094     13.695368   1.000000   1.000000
  184       13.798786     13.799048   1.000000   1.000000
  185       13.854197     13.854496   1.000000   1.000000
  186       13.910468     13.910781   1.000000   1.000000
  187       13.949187     13.949476   1.000000   1.000000
  188       14.048009     14.048279   1.000000   1.000000
  189       14.082641     14.082887   1.000000   1.000000
  190       14.139905     14.140161   1.000000   1.000000
  191       14.173532     14.173807   1.000000   1.000000
  192       14.251450     14.251761   1.000000   1.000000
  193       14.265035     14.265287   1.000000   1.000000
  194       14.314866     14.315137   1.000000   1.000000
  195       14.352205     14.352484   1.000000   1.000000
  196       14.387437     14.387719   1.000000   1.000000
  197       14.485041     14.485297   0.999999   0.999999
  198       14.500058     14.500343   0.999995   0.999995
  199       14.581662     14.581977   0.982115   0.981718
  200       14.633881     14.635180   0.733202   0.720994
  201       14.677358     14.677964   0.271865   0.266210
  202       14.728947     14.729206   0.019399   0.019055
  203       14.754239     14.754549   0.002704   0.002632
  204       14.792181     14.792483   0.000058   0.000056
  205       14.817079     14.817341   0.000003   0.000002
  206       14.879515     14.879816   0.000000   0.000000
  207       14.931634     14.931888   0.000000   0.000000
  208       14.969203     14.969520   0.000000   0.000000
  209       15.040785     15.041052   0.000000   0.000000
  210       15.105669     15.105959   0.000000   0.000000
  211       15.141041     15.141295   0.000000   0.000000
  212       15.204270     15.204584   0.000000   0.000000
  213       15.226591     15.226901   0.000000   0.000000
  214       15.276916     15.277226   0.000000   0.000000
  215       15.299992     15.300299   0.000000   0.000000
  216       15.364208     15.364489   0.000000   0.000000
  217       15.384119     15.384392   0.000000   0.000000
  218       15.421879     15.422170   0.000000   0.000000
  219       15.434174     15.434476   0.000000   0.000000
  220       15.484236     15.484528   0.000000   0.000000
  221       15.533122     15.533427   0.000000   0.000000
  222       15.569072     15.569360   0.000000   0.000000
  223       15.629997     15.630300   0.000000   0.000000
  224       15.690113     15.690420   0.000000   0.000000
  225       15.742929     15.743256   0.000000   0.000000
  226       15.786574     15.786881   0.000000   0.000000
  227       15.832048     15.832361   0.000000   0.000000
  228       15.858715     15.859021   0.000000   0.000000
  229       15.897229     15.897542   0.000000   0.000000
  230       15.931861     15.932182   0.000000   0.000000
  231       15.994305     15.994604   0.000000   0.000000
  232       16.045811     16.046128   0.000000   0.000000
  233       16.078694     16.079010   0.000000   0.000000
  234       16.139510     16.139777   0.000000   0.000000
  235       16.158947     16.159241   0.000000   0.000000
  236       16.208552     16.208816   0.000000   0.000000
  237       16.225868     16.226199   0.000000   0.000000
  238       16.287637     16.287927   0.000000   0.000000
  239       16.341124     16.341412   0.000000   0.000000
  240       16.400858     16.401153   0.000000   0.000000
  241       16.467022     16.467332   0.000000   0.000000
  242       16.529885     16.530146   0.000000   0.000000
  243       16.556489     16.556749   0.000000   0.000000
  244       16.653112     16.653428   0.000000   0.000000
  245       16.694837     16.695158   0.000000   0.000000
  246       16.725133     16.725416   0.000000   0.000000
  247       16.767015     16.767309   0.000000   0.000000
  248       16.810976     16.811265   0.000000   0.000000
  249       16.886201     16.886506   0.000000   0.000000
  250       16.915715     16.916020   0.000000   0.000000
  251       17.144077     17.144407   0.000000   0.000000
  252       17.816435     17.816640   0.000000   0.000000
  253       17.886979     17.887287   0.000000   0.000000
  254       18.005494     18.005795   0.000000   0.000000
  255       18.040320     18.040647   0.000000   0.000000
  256       18.241484     18.241730   0.000000   0.000000
  257       18.283503     18.283782   0.000000   0.000000
  258       18.404589     18.404864   0.000000   0.000000
  259       18.474539     18.474821   0.000000   0.000000
  260       18.500741     18.501072   0.000000   0.000000
  261       18.525599     18.525875   0.000000   0.000000
  262       18.561956     18.562245   0.000000   0.000000
  263       18.688340     18.688643   0.000000   0.000000
  264       18.712213     18.712509   0.000000   0.000000
  265       18.744921     18.745276   0.000000   0.000000
  266       18.755478     18.755761   0.000000   0.000000
  267       18.818980     18.819311   0.000000   0.000000
  268       18.887895     18.888217   0.000000   0.000000
  269       18.898415     18.898737   0.000000   0.000000
  270       18.910141     18.910425   0.000000   0.000000
  271       18.951174     18.951485   0.000000   0.000000
  272       18.994711     18.995021   0.000000   0.000000
  273       19.049066     19.049359   0.000000   0.000000
  274       19.079421     19.079705   0.000000   0.000000
  275       19.088074     19.088350   0.000000   0.000000
  276       19.123408     19.123740   0.000000   0.000000
  277       19.184732     19.185051   0.000000   0.000000
  278       19.200652     19.200974   0.000000   0.000000
  279       19.265032     19.265366   0.000000   0.000000
  280       19.273437     19.273726   0.000000   0.000000
  281       19.309188     19.309515   0.000000   0.000000
  282       19.375488     19.375761   0.000000   0.000000
  283       19.400838     19.401125   0.000000   0.000000
  284       19.459445     19.459798   0.000000   0.000000
  285       19.480829     19.481063   0.000000   0.000000
  286       19.510787     19.511151   0.000000   0.000000
  287       19.528670     19.528991   0.000000   0.000000
  288       19.574682     19.574914   0.000000   0.000000
  289       19.611014     19.611459   0.000000   0.000000
  290       19.631562     19.632014   0.000000   0.000000
  291       19.672345     19.672900   0.000000   0.000000
  292       19.741046     19.741345   0.000000   0.000000
  293       19.788559     19.790493   0.000000   0.000000
  294       19.811318     19.810016   0.000000   0.000000
  295       19.903267     19.905033   0.000000   0.000000
  296       19.916512     19.912980   0.000000   0.000000
  297       19.934418     19.937556   0.000000   0.000000
  298       19.950808     19.963220   0.000000   0.000000
  299       20.084346     20.060748   0.000000   0.000000
  300       20.106272     20.117627   0.000000   0.000000
  301       20.153709     20.161545   0.000000   0.000000
  302       20.179193     20.201814   0.000000   0.000000
  303       20.281323     20.323051   0.000000   0.000000
  304       20.333111     20.364196   0.000000   0.000000
