       N       E                     dE             d eps       ncg     rms          rms(c)
RMM:   1     0.141349451594E+04    0.14135E+04   -0.74963E+04   608   0.514E+02
RMM:   2     0.274424942013E+02   -0.13861E+04   -0.13314E+04   608   0.120E+02
RMM:   3    -0.264220133372E+03   -0.29166E+03   -0.28426E+03   608   0.500E+01
RMM:   4    -0.345227656682E+03   -0.81008E+02   -0.68509E+02   608   0.287E+01
RMM:   5    -0.371709188755E+03   -0.26482E+02   -0.21422E+02   608   0.131E+01
RMM:   6    -0.381148452600E+03   -0.94393E+01   -0.73360E+01   608   0.769E+00
RMM:   7    -0.384571752546E+03   -0.34233E+01   -0.28230E+01   608   0.389E+00
RMM:   8    -0.385954140765E+03   -0.13824E+01   -0.11321E+01   608   0.238E+00
RMM:   9    -0.386778193876E+03   -0.82405E+00   -0.75403E+00  1511   0.128E+00
RMM:  10    -0.386876445516E+03   -0.98252E-01   -0.45518E-01  1479   0.245E-01
RMM:  11    -0.386878271745E+03   -0.18262E-02   -0.12548E-02  1378   0.430E-02
RMM:  12    -0.386878286967E+03   -0.15223E-04   -0.14442E-04  1080   0.610E-03    0.640E+01
RMM:  13    -0.390294939548E+03   -0.34167E+01   -0.15803E+01  1339   0.400E+00    0.387E+01
RMM:  14    -0.397594271723E+03   -0.72993E+01   -0.68505E+00  1329   0.300E+00    0.179E+01
RMM:  15    -0.398321549068E+03   -0.72728E+00   -0.14414E+00  1393   0.124E+00    0.386E+00
RMM:  16    -0.398484897742E+03   -0.16335E+00   -0.41996E-01  1395   0.758E-01    0.249E+00
RMM:  17    -0.398572551438E+03   -0.87654E-01   -0.10346E-01  1424   0.326E-01    0.143E+00
RMM:  18    -0.398616017467E+03   -0.43466E-01   -0.41422E-02  1398   0.220E-01    0.627E-01
RMM:  19    -0.398624767557E+03   -0.87501E-02   -0.10447E-02  1421   0.116E-01    0.283E-01
RMM:  20    -0.398626958997E+03   -0.21914E-02   -0.35790E-03  1440   0.676E-02    0.145E-01
RMM:  21    -0.398627816380E+03   -0.85738E-03   -0.14996E-03  1406   0.449E-02    0.874E-02
RMM:  22    -0.398628214486E+03   -0.39811E-03   -0.73636E-04  1423   0.319E-02    0.554E-02
RMM:  23    -0.398628421899E+03   -0.20741E-03   -0.45331E-04  1402   0.254E-02    0.351E-02
RMM:  24    -0.398628513851E+03   -0.91953E-04   -0.27154E-04  1399   0.196E-02    0.199E-02
RMM:  25    -0.398628539202E+03   -0.25351E-04   -0.10398E-04  1436   0.119E-02    0.961E-03
RMM:  26    -0.398628543762E+03   -0.45597E-05   -0.26622E-05  1061   0.599E-03
   1 F= -.39862854E+03 E0= -.39860160E+03  d E =-.538933E-01  mag=     0.0111
