 vasp.5.4.4.18Apr17-6-g9f103f2a35 (build Sep 16 2020 16:20:45) complex          
  
 executed on             LinuxIFC date 2021.08.10  00:45:53
 running on   16 total cores
 distrk:  each k-point on   16 cores,    1 groups
 distr:  one band on NCORES_PER_BAND=   1 cores,   16 groups


--------------------------------------------------------------------------------------------------------


 INCAR:
 POTCAR:    PAW_PBE Si 05Jan2001                  

 ----------------------------------------------------------------------------- 
|                                                                             |
|           W    W    AA    RRRRR   N    N  II  N    N   GGGG   !!!           |
|           W    W   A  A   R    R  NN   N  II  NN   N  G    G  !!!           |
|           W    W  A    A  R    R  N N  N  II  N N  N  G       !!!           |
|           W WW W  AAAAAA  RRRRR   N  N N  II  N  N N  G  GGG   !            |
|           WW  WW  A    A  R   R   N   NN  II  N   NN  G    G                |
|           W    W  A    A  R    R  N    N  II  N    N   GGGG   !!!           |
|                                                                             |
|      For optimal performance we recommend to set                            |
|        NCORE= 4 - approx SQRT( number of cores)                             |
|      NCORE specifies how many cores store one orbital (NPAR=cpu/NCORE).     |
|      This setting can  greatly improve the performance of VASP for DFT.     |
|      The default,   NCORE=1            might be grossly inefficient         |
|      on modern multi-core architectures or massively parallel machines.     |
|      Do your own testing !!!!                                               |
|      Unfortunately you need to use the default for GW and RPA calculations. |
|      (for HF NCORE is supported but not extensively tested yet)             |
|                                                                             |
 ----------------------------------------------------------------------------- 

 POTCAR:    PAW_PBE Si 05Jan2001                  
   SHA256 =  79d9987ad8750f624c4d6acb2a16d13abf6a777132adc04dc6c8399be72b42bb Si
   COPYR  = (c) Copyright 05Jan2001 Georg Kresse                                
   COPYR  = This file is part of the software VASP. Any use, copying, and all ot
   COPYR  = If you do not have a valid VASP license, you may not use, copy or di
   VRHFIN =Si: s2p2                                                             
   LEXCH  = PE                                                                  
   EATOM  =   103.0669 eV,    7.5752 Ry                                         
                                                                                
   TITEL  = PAW_PBE Si 05Jan2001                                                
   LULTRA =        F    use ultrasoft PP ?                                      
   IUNSCR =        1    unscreen: 0-lin 1-nonlin 2-no                           
   RPACOR =    1.500    partial core radius                                     
   POMASS =   28.085; ZVAL   =    4.000    mass and valenz                      
   RCORE  =    1.900    outmost cutoff radius                                   
   RWIGS  =    2.480; RWIGS  =    1.312    wigner-seitz radius (au A)           
   ENMAX  =  245.345; ENMIN  =  184.009 eV                                      
   ICORE  =        2    local potential                                         
   LCOR   =        T    correct aug charges                                     
   LPAW   =        T    paw PP                                                  
   EAUG   =  322.069                                                            
   DEXC   =    0.000                                                            
   RMAX   =    1.950    core radius for proj-oper                               
   RAUG   =    1.300    factor for augmentation sphere                          
   RDEP   =    1.993    radius for radial grids                                 
   RDEPT  =    1.837    core radius for aug-charge                              
                                                                                
   Atomic configuration                                                         
    6 entries                                                                   
     n  l   j            E        occ.                                          
     1  0  0.50     -1785.8828   2.0000                                         
     2  0  0.50      -139.4969   2.0000                                         
     2  1  1.50       -95.5546   6.0000                                         
     3  0  0.50       -10.8127   2.0000                                         
     3  1  0.50        -4.0811   2.0000                                         
     3  2  1.50        -4.0817   0.0000                                         
   Description                                                                  
     l       E           TYP  RCUT    TYP  RCUT                                 
     0    -10.8127223     23  1.900                                             
     0     -7.6451159     23  1.900                                             
     1     -4.0811372     23  1.900                                             
     1      2.4879257     23  1.900                                             
     2     -4.0817478      7  1.900                                             
  local pseudopotential read in
  partial core-charges read in
  partial kinetic energy density read in
  atomic valenz-charges read in
  non local Contribution for L=           0  read in
    real space projection operators read in
  non local Contribution for L=           0  read in
    real space projection operators read in
  non local Contribution for L=           1  read in
    real space projection operators read in
  non local Contribution for L=           1  read in
    real space projection operators read in
    PAW grid and wavefunctions read in
 
   number of l-projection  operators is LMAX  =           4
   number of lm-projection operators is LMMAX =           8
 
 Optimization of the real space projectors (new method)

 maximal supplied QI-value         = 19.84
 optimisation between [QCUT,QGAM] = [  7.94, 15.87] = [ 17.64, 70.56] Ry 
 Optimized for a Real-space Cutoff    1.57 Angstroem

   l    n(q)    QCUT    max X(q) W(low)/X(q) W(high)/X(q)  e(spline) 
   0      7     7.937   159.560    0.16E-03    0.38E-03    0.13E-06
   0      7     7.937   115.863    0.15E-03    0.37E-03    0.13E-06
   1      7     7.937    88.339    0.42E-03    0.67E-03    0.13E-06
   1      7     7.937    48.592    0.41E-03    0.65E-03    0.13E-06
  PAW_PBE Si 05Jan2001                  :
 energy of atom  1       EATOM= -103.0669
 kinetic energy error for atom=    0.0056 (will be added to EATOM!!)
 
 
 POSCAR: Si                                      
  positions in cartesian coordinates
  No initial velocities read in
 exchange correlation table for  LEXCH =        8
   RHO(1)=    0.500       N(1)  =     2000
   RHO(2)=  100.500       N(2)  =     4000
 


--------------------------------------------------------------------------------------------------------


 ion  position               nearest neighbor table
   1  0.059  0.132  0.005-   9 2.19  40 2.30  77 2.33  34 2.40  24 2.41  21 2.42  53 2.43  87 2.44
                            39 2.46  18 2.48   4 2.57   8 2.77
   2  0.112  0.748  0.393-  49 2.16  45 2.16  96 2.29  82 2.37  92 2.38  23 2.47  94 2.50  33 2.53
                            59 2.56  88 2.87  63 2.89  58 2.91  31 3.13
   3  0.291  0.573  0.911-  72 2.13  60 2.16  95 2.22  44 2.26  47 2.31  73 2.34  42 2.35  30 2.47
                            78 2.64  19 2.64  39 2.83  37 2.84
   4  0.062  0.297  0.195-  50 2.14  39 2.32  68 2.34  56 2.34  76 2.34  34 2.40   9 2.42   1 2.57
                            24 2.57  37 2.81  69 2.82
   5  0.400  0.045  0.160-  24 2.08  41 2.29  69 2.31  70 2.34  40 2.38  67 2.40  32 2.48  33 2.63
                            14 2.67  65 2.76  85 2.82  54 2.92
   6  0.529  0.094  0.618-  25 2.06  29 2.24  55 2.24  66 2.28  43 2.30  35 2.31  12 2.56  65 2.64
                            90 2.72  89 2.85  36 2.89  84 3.00  22 3.06
   7  0.598  0.511  0.323-  93 2.19  46 2.21 100 2.21  99 2.24  98 2.28  79 2.29  26 2.49  81 2.51
                            86 2.70  84 2.79  10 2.88  58 3.02
   8  0.110  0.264  0.773-  83 2.09  77 2.12  44 2.15  74 2.41  39 2.42  17 2.43  89 2.48  48 2.53
                            18 2.62   1 2.77  53 2.80
   9  0.027  0.062  0.205-   1 2.19  96 2.24  75 2.25  34 2.26   4 2.42  56 2.44  16 2.48  69 2.51
                            82 2.53  40 2.61  21 2.77  33 2.95  24 2.98
  10  0.673  0.711  0.507-  26 2.17  13 2.20  79 2.26  22 2.32  58 2.35  11 2.43  98 2.54  31 2.55
                             7 2.88  62 2.91  91 2.96  43 2.99  92 3.03  86 3.14
  11  0.830  0.664  0.680-  38 2.03  13 2.15  61 2.19  92 2.33  51 2.34  10 2.43  23 2.45  79 2.68
                            91 2.74  48 2.74  97 2.77  58 2.82  28 2.99  62 3.01
  12  0.468  0.337  0.624-  55 2.28  30 2.30  66 2.31  91 2.34  52 2.37 100 2.38  89 2.39  36 2.42
                             6 2.56  44 2.61  98 2.62  35 2.69  84 3.04
  13  0.749  0.856  0.647-  11 2.15  10 2.20  92 2.34  28 2.35  71 2.44  43 2.50  29 2.62  25 2.71
                            64 2.72  62 2.72  22 2.93  31 3.03  61 3.03
  14  0.637  0.959  0.232-  75 2.22  54 2.25  27 2.26  26 2.33  85 2.38  65 2.44  43 2.46  70 2.48
                            31 2.58  16 2.60   5 2.67
  15  0.912  0.685  0.016-  95 2.06  38 2.32  21 2.41  61 2.46  86 2.49  50 2.54  82 2.54  45 2.79
                            80 2.83  28 2.85  27 2.88  19 3.06
  16  0.825  0.098  0.334-  43 2.33  75 2.34  34 2.37  20 2.38  54 2.41  56 2.43   9 2.48  64 2.53
                            84 2.54  31 2.60  14 2.60  96 2.71
  17  0.116  0.088  0.613-  89 2.03  64 2.32  53 2.35   8 2.43  90 2.45  63 2.48  56 2.61  83 2.64
                            96 2.66  71 2.71  88 2.78  74 3.03  77 3.12
  18  0.907  0.304  0.925-  74 2.16  97 2.17  87 2.25  57 2.36  34 2.38  39 2.41  80 2.41  48 2.43
                            50 2.47   1 2.48   8 2.62
  19  0.174  0.802  0.932-  40 2.13  21 2.18  53 2.30  42 2.33  95 2.36  47 2.42  38 2.55   3 2.64
                            32 2.76  88 2.78  60 2.80  33 2.89  73 3.02  15 3.06
  20  0.841  0.297  0.455-  84 2.20  56 2.24  55 2.37  16 2.38  79 2.39  51 2.41  46 2.44  76 2.51
                            64 2.69  83 2.79  74 2.93
  21  0.994  0.905  0.986-  19 2.18  53 2.36  75 2.38  40 2.39  15 2.41   1 2.42  71 2.46  82 2.48
                            87 2.59  38 2.69  28 2.74   9 2.77
  22  0.477  0.802  0.576-  62 2.25  25 2.25  10 2.32  65 2.37  94 2.46  49 2.53  98 2.56  42 2.56
                            63 2.67  90 2.76  26 2.90  13 2.93  43 3.03  30 3.05   6 3.06
  23  0.027  0.596  0.560-  73 2.22  92 2.30  58 2.30  51 2.36  11 2.45   2 2.47  76 2.53  49 2.61
                            83 2.66  48 2.66  38 2.81  88 2.84  52 2.93  59 3.03
  24  0.268  0.188  0.099-   5 2.08  41 2.22  69 2.23  77 2.27  40 2.35  67 2.35   1 2.41  39 2.57
                             4 2.57  72 2.72  37 2.72   9 2.98  68 3.03
  25  0.517  0.938  0.745-   6 2.06  90 2.21  22 2.25  62 2.27  32 2.28  29 2.40  42 2.64  13 2.71
                            66 2.78  28 2.85  85 2.88
  26  0.586  0.755  0.319-  10 2.17  14 2.33  70 2.34  86 2.40  93 2.45  94 2.47   7 2.49  99 2.50
                            65 2.54  31 2.63  27 2.77  22 2.90  98 2.94  43 3.05
  27  0.666  0.815  0.067-  85 2.01  28 2.20  14 2.26  99 2.28  70 2.28  75 2.48  86 2.48  61 2.66
                            60 2.76  26 2.77  15 2.88
  28  0.752  0.866  0.876-  61 2.14  27 2.20  85 2.27  13 2.35  71 2.43  87 2.54  29 2.61  21 2.74
                            62 2.76  25 2.85  15 2.85  38 2.87  11 2.99  75 3.06
  29  0.701  0.084  0.753-  87 2.20   6 2.24  55 2.29  74 2.36  25 2.40  36 2.41  28 2.61  13 2.62
                            64 2.72  71 2.79  85 2.82  43 3.06  66 3.09  57 3.11
  30  0.422  0.540  0.709-  91 2.19  98 2.20  44 2.21  12 2.30  62 2.34  52 2.34  78 2.39  42 2.47
                             3 2.47  73 2.55  49 2.88  72 3.02  22 3.05
  31  0.823  0.845  0.360-  82 2.23  86 2.29  92 2.37  58 2.42  43 2.50  75 2.54  96 2.55  10 2.55
                            14 2.58  16 2.60  26 2.63  13 3.03   2 3.13
  32  0.401  0.950  0.936-  25 2.28  40 2.29  85 2.39  60 2.44   5 2.48  70 2.54  90 2.60  42 2.63
                            77 2.65  67 2.72  19 2.76  66 2.88  53 3.03
  33  0.230  0.857  0.204-  40 1.96  47 2.19  94 2.22  70 2.42   2 2.53  82 2.56   5 2.63  69 2.88
                            19 2.89   9 2.95  96 2.96
  34  0.865  0.190  0.124-  57 2.17   9 2.26  75 2.28  54 2.28  87 2.34  16 2.37  18 2.38   1 2.40
                             4 2.40  46 2.89  80 2.90  50 2.96
  35  0.388  0.155  0.452-  89 2.01  69 2.13  65 2.24   6 2.31  63 2.40 100 2.42  41 2.58  68 2.65
                            12 2.69  84 2.80
  36  0.595  0.285  0.817-  66 2.07  57 2.24  55 2.27  67 2.39  29 2.41  12 2.42  91 2.49  97 2.49
                            78 2.78  72 2.87   6 2.89  74 3.11
  37  0.290  0.446  0.159-  93 2.22  72 2.30  47 2.32  59 2.35  68 2.42  41 2.50  39 2.56  24 2.72
                             4 2.81   3 2.84  81 2.88 100 2.96  95 3.04
  38  0.979  0.717  0.802-  11 2.03  15 2.32  48 2.42  71 2.46  88 2.51  73 2.53  19 2.55  95 2.60
                            21 2.69  92 2.74  61 2.75  23 2.81  28 2.87
  39  0.126  0.363  0.988-  50 2.19   4 2.32  95 2.40  18 2.41   8 2.42   1 2.46  37 2.56  72 2.56
                            24 2.57  44 2.66  48 2.72  77 2.73   3 2.83
  40  0.209  0.970  0.050-  33 1.96  19 2.13  32 2.29   1 2.30  24 2.35   5 2.38  21 2.39  53 2.47
                            77 2.58   9 2.61  69 3.04  70 3.08
  41  0.431  0.258  0.225- 100 2.14  24 2.22  81 2.22   5 2.29  54 2.44  67 2.44  37 2.50  69 2.51
                            35 2.58  68 2.61  84 2.74  72 3.09
  42  0.337  0.756  0.779-  62 2.24  60 2.29  73 2.32  19 2.33   3 2.35  88 2.35  90 2.37  30 2.47
                            22 2.56  32 2.63  25 2.64  49 2.76
  43  0.667  0.001  0.467-  65 2.13   6 2.30  16 2.33  14 2.46  31 2.50  13 2.50  64 2.62  84 2.68
                            10 2.99  55 3.01  22 3.03  26 3.05  29 3.06
  44  0.270  0.400  0.774-   8 2.15  72 2.16  52 2.19  30 2.21   3 2.26  73 2.37  12 2.61  89 2.62
                            66 2.64  39 2.66  77 2.75  83 2.81  48 2.97
  45  0.044  0.613  0.244-  76 2.12   2 2.16  82 2.22  50 2.28  47 2.46  59 2.51  58 2.53  95 2.60
                            86 2.73  15 2.79
  46  0.786  0.424  0.261-  80 2.13   7 2.21  20 2.44  50 2.52  86 2.55  76 2.56  58 2.60  79 2.65
                            84 2.70  81 2.76  34 2.89  99 2.92  54 2.97
  47  0.238  0.663  0.112-  95 2.04  33 2.19   3 2.31  37 2.32  93 2.36  19 2.42  60 2.43  45 2.46
                            70 2.78  59 2.90
  48  0.992  0.481  0.791-  51 2.02  97 2.25  38 2.42  18 2.43  73 2.45   8 2.53  95 2.59  23 2.66
                            83 2.67  39 2.72  11 2.74  74 2.90  44 2.97
  49  0.263  0.687  0.528-  94 2.12   2 2.16  73 2.22  88 2.24  59 2.28  52 2.49  98 2.51  22 2.53
                            23 2.61  63 2.72  42 2.76  30 2.88
  50  0.971  0.459  0.100-  80 2.08   4 2.14  95 2.15  39 2.19  45 2.28  18 2.47  46 2.52  15 2.54
                            76 2.73  34 2.96
  51  0.872  0.442  0.638-  48 2.02  79 2.07  97 2.19  11 2.34  23 2.36  83 2.38  74 2.40  20 2.41
                            91 2.58  55 2.77  58 2.93
  52  0.272  0.446  0.564-  44 2.19  59 2.24  83 2.27  30 2.34  12 2.37  73 2.40  98 2.46  89 2.47
                            68 2.49  49 2.49 100 2.54  23 2.93
  53  0.130  0.995  0.823-  77 2.10  71 2.12  90 2.21  19 2.30  17 2.35  21 2.36  88 2.42   1 2.43
                            40 2.47   8 2.80  32 3.03
  54  0.653  0.176  0.191-  57 2.07  84 2.24  14 2.25  34 2.28  16 2.41  41 2.44  81 2.51  67 2.69
                            85 2.70  75 2.86   5 2.92  46 2.97
  55  0.676  0.257  0.612-  84 2.24   6 2.24  36 2.27  12 2.28  29 2.29  20 2.37  74 2.44  91 2.52
                            79 2.75  51 2.77  64 3.00  43 3.01  97 3.13
  56  0.029  0.199  0.400-  20 2.24   4 2.34  16 2.43   9 2.44  96 2.44  68 2.44  83 2.45  69 2.53
                            76 2.55  64 2.60  17 2.61
  57  0.698  0.250  0.008-  54 2.07  34 2.17  80 2.22  36 2.24  81 2.26  67 2.34  87 2.35  18 2.36
                            85 2.73  97 2.81  29 3.11
  58  0.860  0.617  0.410-  79 2.03  86 2.13  23 2.30  10 2.35  76 2.41  31 2.42  45 2.53  92 2.58
                            46 2.60  11 2.82   2 2.91  51 2.93   7 3.02  82 3.14
  59  0.243  0.536  0.366-  68 2.10  52 2.24  49 2.28  37 2.35  93 2.47  45 2.51  76 2.51   2 2.56
                           100 2.61  98 2.74  94 2.82  47 2.90  23 3.03
  60  0.430  0.716  0.980-  70 2.01   3 2.16  42 2.29  78 2.32  47 2.43  32 2.44  62 2.53  99 2.64
                            27 2.76  93 2.78  19 2.80
  61  0.725  0.658  0.867-  62 2.13  28 2.14  11 2.19  78 2.24  97 2.27  15 2.46  27 2.66  91 2.71
                            38 2.75  80 2.91  99 2.93  13 3.03
  62  0.553  0.720  0.766-  61 2.13  42 2.24  22 2.25  25 2.27  30 2.34  78 2.37  60 2.53  91 2.61
                            13 2.72  28 2.76  10 2.91  11 3.01
  63  0.278  0.952  0.496-  90 2.12  65 2.19  94 2.22  35 2.40  17 2.48  88 2.50  96 2.62  69 2.62
                            22 2.67  49 2.72  89 2.84   2 2.89
  64  0.894  0.066  0.569-  71 2.29  17 2.32  74 2.33  16 2.53  96 2.54  56 2.60  43 2.62  20 2.69
                            92 2.71  13 2.72  29 2.72  55 3.00
  65  0.473  0.959  0.405-  43 2.13  94 2.15  63 2.19  35 2.24  22 2.37  14 2.44  26 2.54   6 2.64
                             5 2.76  70 3.02  69 3.04
  66  0.419  0.188  0.787-  77 2.00  36 2.07  67 2.23   6 2.28  12 2.31  89 2.39  90 2.63  44 2.64
                            72 2.72  25 2.78  32 2.88  29 3.09
  67  0.475  0.198  0.998-  72 2.23  66 2.23  57 2.34  24 2.35  36 2.39   5 2.40  41 2.44  81 2.45
                            85 2.56  77 2.64  54 2.69  32 2.72
  68  0.223  0.331  0.355-  59 2.10  69 2.22 100 2.33   4 2.34  37 2.42  76 2.43  56 2.44  52 2.49
                            41 2.61  35 2.65  83 2.80  89 2.88  24 3.03
  69  0.244  0.120  0.305-  35 2.13  68 2.22  24 2.23   5 2.31  41 2.51   9 2.51  56 2.53  63 2.62
                            96 2.80   4 2.82  33 2.88  40 3.04  65 3.04
  70  0.456  0.823  0.143-  60 2.01  27 2.28  26 2.34   5 2.34  33 2.42  93 2.45  14 2.48  32 2.54
                            94 2.58  99 2.74  47 2.78  85 2.82  65 3.02  40 3.08
  71  0.939  0.951  0.756-  53 2.12  64 2.29  87 2.42  28 2.43  13 2.44  38 2.46  21 2.46  92 2.57
                            88 2.71  17 2.71  29 2.79  74 2.89
  72  0.374  0.387  0.958-   3 2.13  44 2.16  67 2.23  37 2.30  78 2.39  81 2.49  39 2.56  66 2.72
                            24 2.72  77 2.82  36 2.87  30 3.02  41 3.09
  73  0.181  0.605  0.712-  23 2.22  49 2.22  88 2.30  42 2.32   3 2.34  44 2.37  52 2.40  48 2.45
                            38 2.53  30 2.55  19 3.02  95 3.03
  74  0.881  0.227  0.730-  18 2.16  64 2.33  29 2.36  87 2.37  51 2.40   8 2.41  55 2.44  97 2.67
                            83 2.74  71 2.89  48 2.90  20 2.93  17 3.03  36 3.11
  75  0.836  0.970  0.144-  14 2.22   9 2.25  82 2.26  34 2.28  16 2.34  21 2.38  27 2.48  31 2.54
                            87 2.65  85 2.65  54 2.86  28 3.06
  76  0.014  0.445  0.364-  45 2.12   4 2.34  58 2.41  68 2.43  59 2.51  20 2.51  23 2.53  56 2.55
                            46 2.56  83 2.59  50 2.73
  77  0.250  0.153  0.880-  66 2.00  53 2.10   8 2.12  24 2.27   1 2.33  40 2.58  67 2.64  32 2.65
                            90 2.67  39 2.73  44 2.75  72 2.82  89 2.88  17 3.12
  78  0.547  0.536  0.908-  61 2.24  60 2.32  62 2.37  72 2.39  30 2.39  99 2.43  91 2.46  81 2.57
                             3 2.64  97 2.66  36 2.78  80 2.88
  79  0.731  0.497  0.503-  58 2.03  51 2.07  91 2.15  10 2.26   7 2.29  20 2.39  46 2.65  11 2.68
                            98 2.72  55 2.75  84 2.90
  80  0.772  0.449  0.054-  50 2.08  46 2.13  57 2.22  97 2.28  81 2.30  99 2.40  18 2.41  15 2.83
                            86 2.86  78 2.88  34 2.90  61 2.91
  81  0.562  0.390  0.113-  41 2.22  57 2.26  99 2.27  80 2.30  67 2.45  72 2.49   7 2.51  54 2.51
                            78 2.57  46 2.76  93 2.78  37 2.88 100 3.14
  82  0.982  0.819  0.213-  45 2.22  31 2.23  75 2.26   2 2.37  96 2.46  21 2.48  86 2.52   9 2.53
                            15 2.54  33 2.56  58 3.14
  83  0.076  0.342  0.587-   8 2.09  52 2.27  51 2.38  89 2.44  56 2.45  76 2.59  17 2.64  23 2.66
                            48 2.67  74 2.74  20 2.79  68 2.80  44 2.81
  84  0.638  0.252  0.396-  20 2.20  54 2.24  55 2.24 100 2.38  16 2.54  43 2.68  46 2.70  41 2.74
                             7 2.79  35 2.80  79 2.90   6 3.00  12 3.04
  85  0.620  0.995  0.001-  27 2.01  28 2.27  14 2.38  32 2.39  67 2.56  87 2.61  75 2.65  54 2.70
                            57 2.73   5 2.82  29 2.82  70 2.82  25 2.88
  86  0.784  0.672  0.224-  99 2.13  58 2.13  31 2.29  26 2.40  27 2.48  15 2.49  82 2.52  46 2.55
                             7 2.70  45 2.73  80 2.86  10 3.14
  87  0.841  0.094  0.917-  29 2.20  18 2.25  34 2.34  57 2.35  74 2.37  71 2.42   1 2.44  28 2.54
                            21 2.59  85 2.61  75 2.65
  88  0.151  0.823  0.661-  90 2.24  49 2.24  73 2.30  92 2.35  42 2.35  53 2.42  63 2.50  38 2.51
                            71 2.71  17 2.78  19 2.78  23 2.84   2 2.87
  89  0.274  0.208  0.604-  35 2.01  17 2.03  12 2.39  66 2.39  83 2.44  52 2.47   8 2.48  44 2.62
                            90 2.62  63 2.84   6 2.85  77 2.88  68 2.88
  90  0.307  0.972  0.701-  63 2.12  53 2.21  25 2.21  88 2.24  42 2.37  17 2.45  32 2.60  89 2.62
                            66 2.63  77 2.67   6 2.72  22 2.76
  91  0.629  0.488  0.687-  79 2.15  97 2.17  30 2.19  12 2.34  78 2.46  36 2.49  55 2.52  51 2.58
                            98 2.59  62 2.61  61 2.71  11 2.74  10 2.96
  92  0.951  0.807  0.550-  23 2.30  11 2.33  13 2.34  88 2.35  31 2.37   2 2.38  96 2.39  71 2.57
                            58 2.58  64 2.71  38 2.74  10 3.03
  93  0.429  0.600  0.226-  99 2.13   7 2.19  37 2.22  47 2.36  26 2.45  70 2.45  59 2.47  94 2.56
                            60 2.78  81 2.78 100 2.85  98 2.88
  94  0.352  0.789  0.371-  49 2.12  65 2.15  33 2.22  63 2.22  22 2.46  26 2.47   2 2.50  93 2.56
                            70 2.58  59 2.82  98 2.94
  95  0.091  0.596  0.994-  47 2.04  15 2.06  50 2.15   3 2.22  19 2.36  39 2.40  48 2.59  38 2.60
                            45 2.60  73 3.03  37 3.04
  96  0.041  0.960  0.399-   9 2.24   2 2.29  92 2.39  56 2.44  82 2.46  64 2.54  31 2.55  63 2.62
                            17 2.66  16 2.71  69 2.80  33 2.96
  97  0.778  0.445  0.831-  91 2.17  18 2.17  51 2.19  48 2.25  61 2.27  80 2.28  36 2.49  78 2.66
                            74 2.67  11 2.77  57 2.81  55 3.13
  98  0.473  0.563  0.501- 100 2.18  30 2.20   7 2.28  52 2.46  49 2.51  10 2.54  22 2.56  91 2.59
                            12 2.62  79 2.72  59 2.74  93 2.88  94 2.94  26 2.94
  99  0.612  0.606  0.126-  86 2.13  93 2.13   7 2.24  81 2.27  27 2.28  80 2.40  78 2.43  26 2.50
                            60 2.64  70 2.74  46 2.92  61 2.93
 100  0.443  0.379  0.396-  41 2.14  98 2.18   7 2.21  68 2.33  84 2.38  12 2.38  35 2.42  52 2.54
                            59 2.61  93 2.85  37 2.96  81 3.14
 

IMPORTANT INFORMATION: All symmetrisations will be switched off!
NOSYMM: (Re-)initialisation of all symmetry stuff for point group C_1.

 
 
 KPOINTS: simple                                  

Automatic generation of k-mesh.
Space group operators:
 irot       det(A)        alpha          n_x          n_y          n_z        tau_x        tau_y        tau_z
    1     1.000000     0.000000     1.000000     0.000000     0.000000     0.000000     0.000000     0.000000
 
 Subroutine IBZKPT returns following result:
 ===========================================
 
 Found      1 irreducible k-points:
 
 Following reciprocal coordinates:
            Coordinates               Weight
  0.000000  0.000000  0.000000      1.000000
 
 Following cartesian coordinates:
            Coordinates               Weight
  0.000000  0.000000  0.000000      1.000000
 


--------------------------------------------------------------------------------------------------------




 Dimension of arrays:
   k-points           NKPTS =      1   k-points in BZ     NKDIM =      1   number of bands    NBANDS=    304
   number of dos      NEDOS =    301   number of ions     NIONS =    100
   non local maximal  LDIM  =      4   non local SUM 2l+1 LMDIM =      8
   total plane-waves  NPLWV =  64000
   max r-space proj   IRMAX =   1017   max aug-charges    IRDMAX=   2209
   dimension x,y,z NGX =    40 NGY =   40 NGZ =   40
   dimension x,y,z NGXF=    80 NGYF=   80 NGZF=   80
   support grid    NGXF=    80 NGYF=   80 NGZF=   80
   ions per type =             100
   NGX,Y,Z   is equivalent  to a cutoff of   6.51,  6.51,  6.51 a.u.
   NGXF,Y,Z  is equivalent  to a cutoff of  13.02, 13.02, 13.02 a.u.

 SYSTEM =  unknown system                          
 POSCAR =  Si                                      

 Startparameter for this run:
   NWRITE =      2    write-flag & timer
   PREC   = normal    normal or accurate (medium, high low for compatibility)
   ISTART =      0    job   : 0-new  1-cont  2-samecut
   ICHARG =      2    charge: 1-file 2-atom 10-const
   ISPIN  =      2    spin polarized calculation?
   LNONCOLLINEAR =      F non collinear calculations
   LSORBIT =      F    spin-orbit coupling
   INIWAV =      1    electr: 0-lowe 1-rand  2-diag
   LASPH  =      F    aspherical Exc in radial PAW
   METAGGA=      F    non-selfconsistent MetaGGA calc.

 Electronic Relaxation 1
   ENCUT  =  245.3 eV  18.03 Ry    4.25 a.u.  13.04 13.04 13.04*2*pi/ulx,y,z
   ENINI  =  245.3     initial cutoff
   ENAUG  =  322.1 eV  augmentation charge cutoff
   NELM   =     60;   NELMIN=  4; NELMDL=-12     # of ELM steps 
   EDIFF  = 0.1E-04   stopping-criterion for ELM
   LREAL  =      T    real-space projection
   NLSPLINE    = F    spline interpolate recip. space projectors
   LCOMPAT=      F    compatible to vasp.4.4
   GGA_COMPAT  = T    GGA compatible to vasp.4.4-vasp.4.6
   LMAXPAW     = -100 max onsite density
   LMAXMIX     =    2 max onsite mixed and CHGCAR
   VOSKOWN=      0    Vosko Wilk Nusair interpolation
   ROPT   =   -0.00050
 Ionic relaxation
   EDIFFG = 0.1E-03   stopping-criterion for IOM
   NSW    =      0    number of steps for IOM
   NBLOCK =      1;   KBLOCK =      1    inner block; outer block 
   IBRION =     -1    ionic relax: 0-MD 1-quasi-New 2-CG
   NFREE  =      0    steps in history (QN), initial steepest desc. (CG)
   ISIF   =      2    stress and relaxation
   IWAVPR =     10    prediction:  0-non 1-charg 2-wave 3-comb
   ISYM   =      0    0-nonsym 1-usesym 2-fastsym
   LCORR  =      T    Harris-Foulkes like correction to forces

   POTIM  = 0.5000    time-step for ionic-motion
   TEIN   =    0.0    initial temperature
   TEBEG  =    0.0;   TEEND  =   0.0 temperature during run
   SMASS  =  -3.00    Nose mass-parameter (am)
   estimated Nose-frequenzy (Omega)   =  0.10E-29 period in steps =****** mass=  -0.238E-26a.u.
   SCALEE = 1.0000    scale energy and forces
   NPACO  =    256;   APACO  = 16.0  distance and # of slots for P.C.
   PSTRESS=    0.0 pullay stress

  Mass of Ions in am
   POMASS =  28.09
  Ionic Valenz
   ZVAL   =   4.00
  Atomic Wigner-Seitz radii
   RWIGS  =  -1.00
  virtual crystal weights 
   VCA    =   1.00
   NELECT =     400.0000    total number of electrons
   NUPDOWN=      -1.0000    fix difference up-down

 DOS related values:
   EMIN   =  10.00;   EMAX   =-10.00  energy-range for DOS
   EFERMI =   0.00
   ISMEAR =     0;   SIGMA  =   0.05  broadening in eV -4-tet -1-fermi 0-gaus

 Electronic relaxation 2 (details)
   IALGO  =     48    algorithm
   LDIAG  =      T    sub-space diagonalisation (order eigenvalues)
   LSUBROT=      F    optimize rotation matrix (better conditioning)
   TURBO    =      0    0=normal 1=particle mesh
   IRESTART =      0    0=no restart 2=restart with 2 vectors
   NREBOOT  =      0    no. of reboots
   NMIN     =      0    reboot dimension
   EREF     =   0.00    reference energy to select bands
   IMIX   =      4    mixing-type and parameters
     AMIX     =   0.40;   BMIX     =  1.00
     AMIX_MAG =   1.60;   BMIX_MAG =  1.00
     AMIN     =   0.10
     WC   =   100.;   INIMIX=   1;  MIXPRE=   1;  MAXMIX= -45

 Intra band minimization:
   WEIMIN = 0.0000     energy-eigenvalue tresh-hold
   EBREAK =  0.82E-08  absolut break condition
   DEPER  =   0.30     relativ break condition  

   TIME   =   0.40     timestep for ELM

  volume/ion in A,a.u.               =      10.65        71.86
  Fermi-wavevector in a.u.,A,eV,Ry     =   1.181242  2.232223 18.984649  1.395332
  Thomas-Fermi vector in A             =   2.317519
 
 Write flags
   LWAVE        =      F    write WAVECAR
   LDOWNSAMPLE  =      F    k-point downsampling of WAVECAR
   LCHARG       =      F    write CHGCAR
   LVTOT        =      F    write LOCPOT, total local potential
   LVHAR        =      F    write LOCPOT, Hartree potential only
   LELF         =      F    write electronic localiz. function (ELF)
   LORBIT       =      0    0 simple, 1 ext, 2 COOP (PROOUT), +10 PAW based schemes


 Dipole corrections
   LMONO  =      F    monopole corrections only (constant potential shift)
   LDIPOL =      F    correct potential (dipole corrections)
   IDIPOL =      0    1-x, 2-y, 3-z, 4-all directions 
   EPSILON=  1.0000000 bulk dielectric constant

 Exchange correlation treatment:
   GGA     =    --    GGA type
   LEXCH   =     8    internal setting for exchange type
   VOSKOWN=      0    Vosko Wilk Nusair interpolation
   LHFCALC =     F    Hartree Fock is set to
   LHFONE  =     F    Hartree Fock one center treatment
   AEXX    =    0.0000 exact exchange contribution

 Linear response parameters
   LEPSILON=     F    determine dielectric tensor
   LRPA    =     F    only Hartree local field effects (RPA)
   LNABLA  =     F    use nabla operator in PAW spheres
   LVEL    =     F    velocity operator in full k-point grid
   LINTERFAST=   F  fast interpolation
   KINTER  =     0    interpolate to denser k-point grid
   CSHIFT  =0.1000    complex shift for real part using Kramers Kronig
   OMEGAMAX=  -1.0    maximum frequency
   DEG_THRESHOLD= 0.2000000E-02 threshold for treating states as degnerate
   RTIME   =   -0.100 relaxation time in fs
  (WPLASMAI=    0.000 imaginary part of plasma frequency in eV, 0.658/RTIME)
   DFIELD  = 0.0000000 0.0000000 0.0000000 field for delta impulse in time
 
 Orbital magnetization related:
   ORBITALMAG=     F  switch on orbital magnetization
   LCHIMAG   =     F  perturbation theory with respect to B field
   DQ        =  0.001000  dq finite difference perturbation B field
   LLRAUG    =     F  two centre corrections for induced B field



--------------------------------------------------------------------------------------------------------


 Static calculation
 charge density and potential will be updated during run
 spin polarized calculation
 RMM-DIIS sequential band-by-band
 perform sub-space diagonalisation
    before iterative eigenvector-optimisation
 modified Broyden-mixing scheme, WC =      100.0
 initial mixing is a Kerker type mixing with AMIX =  0.4000 and BMIX =      1.0000
 Hartree-type preconditioning will be used
 using additional bands          104
 real space projection scheme for non local part
 use partial core corrections
 calculate Harris-corrections to forces 
   (improved forces if not selfconsistent)
 use gradient corrections 
 use of overlap-Matrix (Vanderbilt PP)
 Gauss-broadening in eV      SIGMA  =   0.05


--------------------------------------------------------------------------------------------------------


  energy-cutoff  :      245.34
  volume of cell :     1064.80
      direct lattice vectors                 reciprocal lattice vectors
    10.211495000  0.000000000  0.000000000     0.097928854  0.000000000  0.000000000
     0.000000000 10.211495000  0.000000000     0.000000000  0.097928854  0.000000000
     0.000000000  0.000000000 10.211495000     0.000000000  0.000000000  0.097928854

  length of vectors
    10.211495000 10.211495000 10.211495000     0.097928854  0.097928854  0.097928854


 
 k-points in units of 2pi/SCALE and weight: simple                                  
   0.00000000  0.00000000  0.00000000       1.000
 
 k-points in reciprocal lattice and weights: simple                                  
   0.00000000  0.00000000  0.00000000       1.000
 
 position of ions in fractional coordinates (direct lattice) 
   0.05931660  0.13215700  0.00458000
   0.11225500  0.74779000  0.39265700
   0.29109200  0.57256900  0.91085000
   0.06238180  0.29660300  0.19527200
   0.40041100  0.04509110  0.15979100
   0.52883400  0.09421600  0.61774900
   0.59818200  0.51143100  0.32309300
   0.10981500  0.26395100  0.77332900
   0.02703620  0.06222740  0.20462700
   0.67307300  0.71093000  0.50733900
   0.83033900  0.66390700  0.68029600
   0.46757600  0.33723900  0.62422500
   0.74937500  0.85581600  0.64670000
   0.63704600  0.95927000  0.23157500
   0.91152700  0.68516200  0.01634120
   0.82459700  0.09825170  0.33354000
   0.11589600  0.08797730  0.61323700
   0.90694400  0.30395900  0.92529200
   0.17386800  0.80244900  0.93187500
   0.84112700  0.29681200  0.45473100
   0.99389100  0.90465400  0.98612600
   0.47698800  0.80169300  0.57636600
   0.02676880  0.59550100  0.55977600
   0.26810200  0.18761900  0.09880350
   0.51674500  0.93808800  0.74503500
   0.58590100  0.75485700  0.31870500
   0.66616500  0.81468000  0.06700770
   0.75176500  0.86600600  0.87646600
   0.70099500  0.08393760  0.75261400
   0.42199700  0.54043700  0.70944100
   0.82312400  0.84540500  0.35982000
   0.40082500  0.94955100  0.93597900
   0.22976700  0.85673200  0.20415300
   0.86548800  0.18964000  0.12388000
   0.38777200  0.15529500  0.45170800
   0.59466300  0.28452100  0.81684200
   0.29004400  0.44635800  0.15868900
   0.97889100  0.71748200  0.80160800
   0.12635300  0.36332400  0.98822300
   0.20919900  0.97025200  0.05037260
   0.43096500  0.25757000  0.22524200
   0.33727000  0.75555400  0.77940600
   0.66742900  0.00095261  0.46685300
   0.27023700  0.39973400  0.77386200
   0.04380700  0.61269500  0.24430900
   0.78637600  0.42429700  0.26065700
   0.23845600  0.66287200  0.11198800
   0.99176583  0.48066500  0.79121100
   0.26291400  0.68740800  0.52846800
   0.97060200  0.45900500  0.10008700
   0.87235100  0.44239500  0.63804300
   0.27188800  0.44602000  0.56425700
   0.13036300  0.99498693  0.82294300
   0.65282000  0.17570900  0.19081400
   0.67553400  0.25740400  0.61201100
   0.02947730  0.19881600  0.40017800
   0.69757500  0.25005800  0.00786000
   0.85990400  0.61702600  0.41014100
   0.24282300  0.53553300  0.36562500
   0.42955700  0.71633500  0.98003400
   0.72474400  0.65796100  0.86687800
   0.55325700  0.71960800  0.76552200
   0.27842800  0.95172600  0.49572000
   0.89362400  0.06580750  0.56926400
   0.47291300  0.95860600  0.40543900
   0.41850300  0.18806900  0.78719600
   0.47491000  0.19809600  0.99779904
   0.22329500  0.33075500  0.35504000
   0.24385700  0.12015400  0.30504700
   0.45590400  0.82321800  0.14297800
   0.93901500  0.95053400  0.75601600
   0.37393800  0.38716500  0.95802700
   0.18112400  0.60535100  0.71205200
   0.88091600  0.22665300  0.73034200
   0.83602000  0.96966700  0.14418900
   0.01439000  0.44523100  0.36351700
   0.24966000  0.15282700  0.87996700
   0.54696500  0.53622800  0.90785900
   0.73135800  0.49719100  0.50333400
   0.77195700  0.44886500  0.05420280
   0.56213300  0.39021300  0.11279500
   0.98233450  0.81872300  0.21337600
   0.07646920  0.34166700  0.58665500
   0.63846300  0.25154200  0.39578900
   0.62048500  0.99453136  0.00145000
   0.78402000  0.67159600  0.22377900
   0.84052300  0.09436560  0.91671600
   0.15142000  0.82268700  0.66089300
   0.27417000  0.20779400  0.60424400
   0.30724400  0.97210540  0.70066200
   0.62856800  0.48787500  0.68684900
   0.95078400  0.80706500  0.54992200
   0.42901700  0.59950100  0.22554300
   0.35230700  0.78927600  0.37082400
   0.09124310  0.59568900  0.99430000
   0.04136000  0.96038400  0.39866600
   0.77828100  0.44479300  0.83128900
   0.47308800  0.56251400  0.50131600
   0.61212900  0.60619100  0.12593400
   0.44293300  0.37889700  0.39590300
 
 position of ions in cartesian coordinates  (Angst):
   0.60571116  1.34952054  0.04676865
   1.14629137  7.63605385  4.00961499
   2.97248450  5.84678548  9.30114022
   0.63701144  3.02876005  1.99401905
   4.08879492  0.46044754  1.63170500
   5.40018575  0.96208621  6.30814082
   6.10833250  5.22247510  3.29926255
   1.12137532  2.69533432  7.89684522
   0.27608002  0.63543478  2.08954759
   6.87308157  7.25965814  5.18068966
   8.47900255  6.77948301  6.94683920
   4.77464999  3.44371436  6.37427047
   7.65223907  8.73916080  6.60377382
   6.50519204  9.79558081  2.36472695
   9.30805340  6.99652834  0.16686808
   8.42036814  1.00329674  3.40594204
   1.18347142  0.89837976  6.26206656
   9.26125412  3.10387581  9.44861463
   1.77545221  8.19420395  9.51583690
   8.58916415  3.03089425  4.64348333
  10.14911298  9.23786980 10.06982072
   4.87076058  8.18648406  5.88555853
   0.27334947  6.08095548  5.71614983
   2.73772223  1.91587048  1.00893145
   5.27673898  9.57928092  7.60792118
   5.98292513  7.70821848  3.25445451
   6.80254057  8.31910075  0.68424879
   7.67664454  8.84321594  8.95002818
   7.15820694  0.85712838  7.68531410
   4.30922026  5.51866972  7.24445322
   8.40532661  8.63284893  3.67430013
   4.09302248  9.69633529  9.55774488
   2.34626457  8.74851453  2.08470734
   8.83792638  1.93650791  1.26500000
   3.95973184  1.58579412  4.61261398
   6.07239825  2.90538477  8.34117800
   2.96178286  4.55798249  1.62045193
   9.99594055  7.32656386  8.18561608
   1.29025303  3.71008121 10.09123422
   2.13623454  9.90772345  0.51437955
   4.40079694  2.63017477  2.30005756
   3.44403092  7.71533589  7.95890047
   6.81544790  0.00972757  4.76726708
   2.75952377  4.08188174  7.90228794
   0.44733496  6.25653193  2.49476013
   8.03007459  4.33270669  2.66169765
   2.43499225  6.76891411  1.14356490
  10.12741181  4.90830824  8.07944717
   2.68474500  7.01946335  5.39644834
   9.91129747  4.68712726  1.02203790
   8.90800787  4.51751433  6.51537290
   2.77638295  4.55453100  5.76190753
   1.33120112 10.16030406  8.40347833
   6.66626817  1.79425157  1.94849621
   6.89821206  2.62847966  6.24954727
   0.30100730  2.03020859  4.08641565
   7.12328362  2.55346602  0.08026235
   8.78090540  6.30075791  4.18815277
   2.47958585  5.46859255  3.73357786
   4.38641916  7.31485127 10.00761229
   7.40071973  6.71876546  8.85212036
   5.64958109  7.34827349  7.81712408
   2.84316613  9.71854529  5.06204230
   9.12523701  0.67199296  5.81303649
   4.82914873  9.78880038  4.14013832
   4.27354129  1.92046565  8.03844802
   4.84954109  2.02285631 10.18901991
   2.28017578  3.37750303  3.62548918
   2.49014454  1.22695197  3.11498592
   4.65546142  8.40628649  1.46001913
   9.58874698  9.70637319  7.72005360
   3.81846602  3.95353346  9.78288792
   1.84954682  6.18153871  7.27111544
   8.99546933  2.31446598  7.45788368
   8.53701405  9.90174972  1.47238525
   0.14694341  4.54647413  3.71205203
   2.54940184  1.56059215  8.98577862
   5.58533036  5.47568954  9.27059764
   7.46825856  5.07706341  5.13979262
   7.88283505  4.58358270  0.55349162
   5.74021832  3.98465810  1.15180558
  10.03110384  8.36038582  2.17888796
   0.78086485  3.48893086  5.99062460
   6.51966173  2.56861988  4.04159739
   6.33607948 10.15565201  0.01480667
   8.00601631  6.85799920  2.28511814
   8.58299641  0.96361385  9.36104085
   1.54622457  8.40086419  6.74870557
   2.79968558  2.12188739  6.17023458
   3.13742057  9.92664943  7.15480651
   6.41861899  4.98193312  7.01375513
   9.70892606  8.24134021  5.61552575
   4.38090495  6.12180146  2.30313122
   3.59758117  8.05968793  3.78666742
   0.93172846  6.08287525 10.15328948
   0.42234743  9.80695641  4.07097587
   7.94741254  4.54200150  8.48870347
   4.83093575  5.74410890  5.11918583
   6.25075222  6.19011637  1.28597441
   4.52300811  3.86910482  4.04276150
 


--------------------------------------------------------------------------------------------------------


 k-point  1 :   0.0000 0.0000 0.0000  plane waves:    9315

 maximum and minimum number of plane-waves per node :      9315     9315

 maximum number of plane-waves:      9315
 maximum index in each direction: 
   IXMAX=   13   IYMAX=   13   IZMAX=   13
   IXMIN=  -13   IYMIN=  -13   IZMIN=  -13


 serial   3D FFT for wavefunctions
 parallel 3D FFT for charge:
    minimum data exchange during FFTs selected (reduces bandwidth)


 total amount of memory used by VASP MPI-rank0    53941. kBytes
=======================================================================

   base      :      30000. kBytes
   nonlr-proj:       8273. kBytes
   fftplans  :       1377. kBytes
   grid      :       7520. kBytes
   one-center:        614. kBytes
   wavefun   :       6157. kBytes
 
     INWAV:  cpu time    0.0000: real time    0.0000
 Broyden mixing: mesh for mixing (old mesh)
   NGX = 27   NGY = 27   NGZ = 27
  (NGX  = 80   NGY  = 80   NGZ  = 80)
  gives a total of  19683 points

 initial charge density was supplied:
 charge density of overlapping atoms calculated
 number of electron     400.0000000 magnetization     100.0000000
 keeping initial charge density in first step


--------------------------------------------------------------------------------------------------------


 Maximum index for non-local projection operator          951
 Maximum index for augmentation-charges          191 (set IRDMAX)


--------------------------------------------------------------------------------------------------------


 First call to EWALD:  gamma=   0.174
 Maximum number of real-space cells 3x 3x 3
 Maximum number of reciprocal cells 3x 3x 3

    FEWALD:  cpu time    0.0072: real time    0.0072


--------------------------------------- Iteration      1(   1)  ---------------------------------------


    POTLOK:  cpu time    0.0554: real time    0.1878
    SETDIJ:  cpu time    0.0348: real time    0.0349
    EDDIAG:  cpu time    0.3492: real time    0.3512
  RMM-DIIS:  cpu time    0.4385: real time    0.4436
    ORTHCH:  cpu time    0.0973: real time    0.0980
       DOS:  cpu time    0.0004: real time    0.0004
    --------------------------------------------
      LOOP:  cpu time    0.9757: real time    1.1159

 eigenvalue-minimisations  :   608
 total energy-change (2. order) : 0.1413495E+04  (-0.7496306E+04)
 number of electron     400.0000000 magnetization     100.0000000
 augmentation part      400.0000000 magnetization     100.0000000

 Free energy of the ion-electron system (eV)
  ---------------------------------------------------
  alpha Z        PSCENC =       316.14514549
  Ewald energy   TEWEN  =    -14855.54467936
  -Hartree energ DENC   =      -114.18577364
  -exchange      EXHF   =         0.00000000
  -V(xc)+E(xc)   XCENC  =      -776.80569763
  PAW double counting   =      8803.41707833    -7043.47671478
  entropy T*S    EENTRO =        -0.00623598
  eigenvalues    EBANDS =      4777.82277791
  atomic energy  EATOM  =     10306.12861560
  Solvation  Ediel_sol  =         0.00000000
  ---------------------------------------------------
  free energy    TOTEN  =      1413.49451594 eV

  energy without entropy =     1413.50075192  energy(sigma->0) =     1413.49763393


--------------------------------------------------------------------------------------------------------




--------------------------------------- Iteration      1(   2)  ---------------------------------------


    EDDIAG:  cpu time    0.3406: real time    0.3427
  RMM-DIIS:  cpu time    0.4485: real time    0.4540
    ORTHCH:  cpu time    0.0979: real time    0.0985
       DOS:  cpu time    0.0003: real time    0.0003
    --------------------------------------------
      LOOP:  cpu time    0.8873: real time    0.8955

 eigenvalue-minimisations  :   608
 total energy-change (2. order) :-0.1386052E+04  (-0.1331427E+04)
 number of electron     400.0000000 magnetization     100.0000000
 augmentation part      400.0000000 magnetization     100.0000000

 Free energy of the ion-electron system (eV)
  ---------------------------------------------------
  alpha Z        PSCENC =       316.14514549
  Ewald energy   TEWEN  =    -14855.54467936
  -Hartree energ DENC   =      -114.18577364
  -exchange      EXHF   =         0.00000000
  -V(xc)+E(xc)   XCENC  =      -776.80569763
  PAW double counting   =      8803.41707833    -7043.47671478
  entropy T*S    EENTRO =        -0.04657316
  eigenvalues    EBANDS =      3391.81109335
  atomic energy  EATOM  =     10306.12861560
  Solvation  Ediel_sol  =         0.00000000
  ---------------------------------------------------
  free energy    TOTEN  =        27.44249420 eV

  energy without entropy =       27.48906736  energy(sigma->0) =       27.46578078


--------------------------------------------------------------------------------------------------------




--------------------------------------- Iteration      1(   3)  ---------------------------------------


    EDDIAG:  cpu time    0.3374: real time    0.3393
  RMM-DIIS:  cpu time    0.4438: real time    0.4490
    ORTHCH:  cpu time    0.0974: real time    0.0981
       DOS:  cpu time    0.0003: real time    0.0003
    --------------------------------------------
      LOOP:  cpu time    0.8789: real time    0.8868

 eigenvalue-minimisations  :   608
 total energy-change (2. order) :-0.2916626E+03  (-0.2842608E+03)
 number of electron     400.0000000 magnetization     100.0000000
 augmentation part      400.0000000 magnetization     100.0000000

 Free energy of the ion-electron system (eV)
  ---------------------------------------------------
  alpha Z        PSCENC =       316.14514549
  Ewald energy   TEWEN  =    -14855.54467936
  -Hartree energ DENC   =      -114.18577364
  -exchange      EXHF   =         0.00000000
  -V(xc)+E(xc)   XCENC  =      -776.80569763
  PAW double counting   =      8803.41707833    -7043.47671478
  entropy T*S    EENTRO =        -0.04364802
  eigenvalues    EBANDS =      3100.14554064
  atomic energy  EATOM  =     10306.12861560
  Solvation  Ediel_sol  =         0.00000000
  ---------------------------------------------------
  free energy    TOTEN  =      -264.22013337 eV

  energy without entropy =     -264.17648535  energy(sigma->0) =     -264.19830936


--------------------------------------------------------------------------------------------------------




--------------------------------------- Iteration      1(   4)  ---------------------------------------


    EDDIAG:  cpu time    0.3378: real time    0.3398
  RMM-DIIS:  cpu time    0.4411: real time    0.4463
    ORTHCH:  cpu time    0.0975: real time    0.0982
       DOS:  cpu time    0.0003: real time    0.0003
    --------------------------------------------
      LOOP:  cpu time    0.8768: real time    0.8847

 eigenvalue-minimisations  :   608
 total energy-change (2. order) :-0.8100752E+02  (-0.6850943E+02)
 number of electron     400.0000000 magnetization     100.0000000
 augmentation part      400.0000000 magnetization     100.0000000

 Free energy of the ion-electron system (eV)
  ---------------------------------------------------
  alpha Z        PSCENC =       316.14514549
  Ewald energy   TEWEN  =    -14855.54467936
  -Hartree energ DENC   =      -114.18577364
  -exchange      EXHF   =         0.00000000
  -V(xc)+E(xc)   XCENC  =      -776.80569763
  PAW double counting   =      8803.41707833    -7043.47671478
  entropy T*S    EENTRO =        -0.05463321
  eigenvalues    EBANDS =      3019.14900252
  atomic energy  EATOM  =     10306.12861560
  Solvation  Ediel_sol  =         0.00000000
  ---------------------------------------------------
  free energy    TOTEN  =      -345.22765668 eV

  energy without entropy =     -345.17302347  energy(sigma->0) =     -345.20034008


--------------------------------------------------------------------------------------------------------




--------------------------------------- Iteration      1(   5)  ---------------------------------------


    EDDIAG:  cpu time    0.3369: real time    0.3389
  RMM-DIIS:  cpu time    0.4415: real time    0.4468
    ORTHCH:  cpu time    0.0975: real time    0.0983
       DOS:  cpu time    0.0003: real time    0.0003
    --------------------------------------------
      LOOP:  cpu time    0.8763: real time    0.8844

 eigenvalue-minimisations  :   608
 total energy-change (2. order) :-0.2648153E+02  (-0.2142249E+02)
 number of electron     400.0000000 magnetization     100.0000000
 augmentation part      400.0000000 magnetization     100.0000000

 Free energy of the ion-electron system (eV)
  ---------------------------------------------------
  alpha Z        PSCENC =       316.14514549
  Ewald energy   TEWEN  =    -14855.54467936
  -Hartree energ DENC   =      -114.18577364
  -exchange      EXHF   =         0.00000000
  -V(xc)+E(xc)   XCENC  =      -776.80569763
  PAW double counting   =      8803.41707833    -7043.47671478
  entropy T*S    EENTRO =        -0.04069196
  eigenvalues    EBANDS =      2992.65352920
  atomic energy  EATOM  =     10306.12861560
  Solvation  Ediel_sol  =         0.00000000
  ---------------------------------------------------
  free energy    TOTEN  =      -371.70918875 eV

  energy without entropy =     -371.66849679  energy(sigma->0) =     -371.68884277


--------------------------------------------------------------------------------------------------------




--------------------------------------- Iteration      1(   6)  ---------------------------------------


    EDDIAG:  cpu time    0.3371: real time    0.3392
  RMM-DIIS:  cpu time    0.4430: real time    0.4481
    ORTHCH:  cpu time    0.0973: real time    0.0980
       DOS:  cpu time    0.0003: real time    0.0003
    --------------------------------------------
      LOOP:  cpu time    0.8777: real time    0.8857

 eigenvalue-minimisations  :   608
 total energy-change (2. order) :-0.9439264E+01  (-0.7336025E+01)
 number of electron     400.0000000 magnetization     100.0000000
 augmentation part      400.0000000 magnetization     100.0000000

 Free energy of the ion-electron system (eV)
  ---------------------------------------------------
  alpha Z        PSCENC =       316.14514549
  Ewald energy   TEWEN  =    -14855.54467936
  -Hartree energ DENC   =      -114.18577364
  -exchange      EXHF   =         0.00000000
  -V(xc)+E(xc)   XCENC  =      -776.80569763
  PAW double counting   =      8803.41707833    -7043.47671478
  entropy T*S    EENTRO =        -0.05290153
  eigenvalues    EBANDS =      2983.22647492
  atomic energy  EATOM  =     10306.12861560
  Solvation  Ediel_sol  =         0.00000000
  ---------------------------------------------------
  free energy    TOTEN  =      -381.14845260 eV

  energy without entropy =     -381.09555107  energy(sigma->0) =     -381.12200184


--------------------------------------------------------------------------------------------------------




--------------------------------------- Iteration      1(   7)  ---------------------------------------


    EDDIAG:  cpu time    0.3371: real time    0.3391
  RMM-DIIS:  cpu time    0.4421: real time    0.4473
    ORTHCH:  cpu time    0.0977: real time    0.0984
       DOS:  cpu time    0.0003: real time    0.0003
    --------------------------------------------
      LOOP:  cpu time    0.8772: real time    0.8851

 eigenvalue-minimisations  :   608
 total energy-change (2. order) :-0.3423300E+01  (-0.2823038E+01)
 number of electron     400.0000000 magnetization     100.0000000
 augmentation part      400.0000000 magnetization     100.0000000

 Free energy of the ion-electron system (eV)
  ---------------------------------------------------
  alpha Z        PSCENC =       316.14514549
  Ewald energy   TEWEN  =    -14855.54467936
  -Hartree energ DENC   =      -114.18577364
  -exchange      EXHF   =         0.00000000
  -V(xc)+E(xc)   XCENC  =      -776.80569763
  PAW double counting   =      8803.41707833    -7043.47671478
  entropy T*S    EENTRO =        -0.04622713
  eigenvalues    EBANDS =      2979.79650057
  atomic energy  EATOM  =     10306.12861560
  Solvation  Ediel_sol  =         0.00000000
  ---------------------------------------------------
  free energy    TOTEN  =      -384.57175255 eV

  energy without entropy =     -384.52552542  energy(sigma->0) =     -384.54863898


--------------------------------------------------------------------------------------------------------




--------------------------------------- Iteration      1(   8)  ---------------------------------------


    EDDIAG:  cpu time    0.3381: real time    0.3402
  RMM-DIIS:  cpu time    0.4437: real time    0.4489
    ORTHCH:  cpu time    0.0979: real time    0.0986
       DOS:  cpu time    0.0003: real time    0.0003
    --------------------------------------------
      LOOP:  cpu time    0.8800: real time    0.8880

 eigenvalue-minimisations  :   608
 total energy-change (2. order) :-0.1382388E+01  (-0.1132139E+01)
 number of electron     400.0000000 magnetization     100.0000000
 augmentation part      400.0000000 magnetization     100.0000000

 Free energy of the ion-electron system (eV)
  ---------------------------------------------------
  alpha Z        PSCENC =       316.14514549
  Ewald energy   TEWEN  =    -14855.54467936
  -Hartree energ DENC   =      -114.18577364
  -exchange      EXHF   =         0.00000000
  -V(xc)+E(xc)   XCENC  =      -776.80569763
  PAW double counting   =      8803.41707833    -7043.47671478
  entropy T*S    EENTRO =        -0.04678706
  eigenvalues    EBANDS =      2978.41467229
  atomic energy  EATOM  =     10306.12861560
  Solvation  Ediel_sol  =         0.00000000
  ---------------------------------------------------
  free energy    TOTEN  =      -385.95414076 eV

  energy without entropy =     -385.90735370  energy(sigma->0) =     -385.93074723


--------------------------------------------------------------------------------------------------------




--------------------------------------- Iteration      1(   9)  ---------------------------------------


    EDDIAG:  cpu time    0.3376: real time    0.3397
  RMM-DIIS:  cpu time    0.9893: real time    1.0017
    ORTHCH:  cpu time    0.0974: real time    0.0981
       DOS:  cpu time    0.0003: real time    0.0003
    --------------------------------------------
      LOOP:  cpu time    1.4247: real time    1.4398

 eigenvalue-minimisations  :  1511
 total energy-change (2. order) :-0.8240531E+00  (-0.7540279E+00)
 number of electron     400.0000000 magnetization     100.0000000
 augmentation part      400.0000000 magnetization     100.0000000

 Free energy of the ion-electron system (eV)
  ---------------------------------------------------
  alpha Z        PSCENC =       316.14514549
  Ewald energy   TEWEN  =    -14855.54467936
  -Hartree energ DENC   =      -114.18577364
  -exchange      EXHF   =         0.00000000
  -V(xc)+E(xc)   XCENC  =      -776.80569763
  PAW double counting   =      8803.41707833    -7043.47671478
  entropy T*S    EENTRO =        -0.04833468
  eigenvalues    EBANDS =      2977.59216680
  atomic energy  EATOM  =     10306.12861560
  Solvation  Ediel_sol  =         0.00000000
  ---------------------------------------------------
  free energy    TOTEN  =      -386.77819388 eV

  energy without entropy =     -386.72985919  energy(sigma->0) =     -386.75402654


--------------------------------------------------------------------------------------------------------




--------------------------------------- Iteration      1(  10)  ---------------------------------------


    EDDIAG:  cpu time    0.3380: real time    0.3400
  RMM-DIIS:  cpu time    0.9640: real time    0.9762
    ORTHCH:  cpu time    0.0980: real time    0.0986
       DOS:  cpu time    0.0003: real time    0.0003
    --------------------------------------------
      LOOP:  cpu time    1.4003: real time    1.4151

 eigenvalue-minimisations  :  1479
 total energy-change (2. order) :-0.9825164E-01  (-0.4551820E-01)
 number of electron     400.0000000 magnetization     100.0000000
 augmentation part      400.0000000 magnetization     100.0000000

 Free energy of the ion-electron system (eV)
  ---------------------------------------------------
  alpha Z        PSCENC =       316.14514549
  Ewald energy   TEWEN  =    -14855.54467936
  -Hartree energ DENC   =      -114.18577364
  -exchange      EXHF   =         0.00000000
  -V(xc)+E(xc)   XCENC  =      -776.80569763
  PAW double counting   =      8803.41707833    -7043.47671478
  entropy T*S    EENTRO =        -0.04811781
  eigenvalues    EBANDS =      2977.49369829
  atomic energy  EATOM  =     10306.12861560
  Solvation  Ediel_sol  =         0.00000000
  ---------------------------------------------------
  free energy    TOTEN  =      -386.87644552 eV

  energy without entropy =     -386.82832770  energy(sigma->0) =     -386.85238661


--------------------------------------------------------------------------------------------------------




--------------------------------------- Iteration      1(  11)  ---------------------------------------


    EDDIAG:  cpu time    0.3374: real time    0.3394
  RMM-DIIS:  cpu time    0.9165: real time    0.9332
    ORTHCH:  cpu time    0.0974: real time    0.0981
       DOS:  cpu time    0.0003: real time    0.0003
    --------------------------------------------
      LOOP:  cpu time    1.3515: real time    1.3710

 eigenvalue-minimisations  :  1378
 total energy-change (2. order) :-0.1826229E-02  (-0.1254792E-02)
 number of electron     400.0000000 magnetization     100.0000000
 augmentation part      400.0000000 magnetization     100.0000000

 Free energy of the ion-electron system (eV)
  ---------------------------------------------------
  alpha Z        PSCENC =       316.14514549
  Ewald energy   TEWEN  =    -14855.54467936
  -Hartree energ DENC   =      -114.18577364
  -exchange      EXHF   =         0.00000000
  -V(xc)+E(xc)   XCENC  =      -776.80569763
  PAW double counting   =      8803.41707833    -7043.47671478
  entropy T*S    EENTRO =        -0.04810796
  eigenvalues    EBANDS =      2977.49186221
  atomic energy  EATOM  =     10306.12861560
  Solvation  Ediel_sol  =         0.00000000
  ---------------------------------------------------
  free energy    TOTEN  =      -386.87827174 eV

  energy without entropy =     -386.83016378  energy(sigma->0) =     -386.85421776


--------------------------------------------------------------------------------------------------------




--------------------------------------- Iteration      1(  12)  ---------------------------------------


    EDDIAG:  cpu time    0.3373: real time    0.3393
  RMM-DIIS:  cpu time    0.7828: real time    0.7927
    ORTHCH:  cpu time    0.0975: real time    0.0982
       DOS:  cpu time    0.0003: real time    0.0003
    CHARGE:  cpu time    0.0448: real time    0.0450
    MIXING:  cpu time    0.0010: real time    0.0010
    --------------------------------------------
      LOOP:  cpu time    1.2638: real time    1.2766

 eigenvalue-minimisations  :  1080
 total energy-change (2. order) :-0.1522254E-04  (-0.1444164E-04)
 number of electron     400.0000100 magnetization      67.0607743
 augmentation part      -23.7941635 magnetization      41.2644878

 Broyden mixing:
  rms(total) = 0.64049E+01    rms(broyden)= 0.64048E+01
  rms(prec ) = 0.66410E+01
  weight for this iteration     100.00

 Free energy of the ion-electron system (eV)
  ---------------------------------------------------
  alpha Z        PSCENC =       316.14514549
  Ewald energy   TEWEN  =    -14855.54467936
  -Hartree energ DENC   =      -114.18577364
  -exchange      EXHF   =         0.00000000
  -V(xc)+E(xc)   XCENC  =      -776.80569763
  PAW double counting   =      8803.41707833    -7043.47671478
  entropy T*S    EENTRO =        -0.04810796
  eigenvalues    EBANDS =      2977.49184699
  atomic energy  EATOM  =     10306.12861560
  Solvation  Ediel_sol  =         0.00000000
  ---------------------------------------------------
  free energy    TOTEN  =      -386.87828697 eV

  energy without entropy =     -386.83017900  energy(sigma->0) =     -386.85423299


--------------------------------------------------------------------------------------------------------




--------------------------------------- Iteration      1(  13)  ---------------------------------------


    POTLOK:  cpu time    0.0527: real time    0.0530
    SETDIJ:  cpu time    0.0350: real time    0.0351
    EDDIAG:  cpu time    0.3377: real time    0.3396
  RMM-DIIS:  cpu time    0.8990: real time    0.9101
    ORTHCH:  cpu time    0.0990: real time    0.0996
       DOS:  cpu time    0.0004: real time    0.0004
    CHARGE:  cpu time    0.0451: real time    0.0453
    MIXING:  cpu time    0.0012: real time    0.0012
    --------------------------------------------
      LOOP:  cpu time    1.4701: real time    1.4845

 eigenvalue-minimisations  :  1339
 total energy-change (2. order) :-0.3416653E+01  (-0.1580268E+01)
 number of electron     400.0000104 magnetization      31.6864404
 augmentation part      -23.7851026 magnetization      13.2222971

 Broyden mixing:
  rms(total) = 0.38736E+01    rms(broyden)= 0.38736E+01
  rms(prec ) = 0.39656E+01
  weight for this iteration     100.00

 eigenvalues of (default mixing * dielectric matrix)
  average eigenvalue GAMMA=   1.2654
  1.2654

 Free energy of the ion-electron system (eV)
  ---------------------------------------------------
  alpha Z        PSCENC =       316.14514549
  Ewald energy   TEWEN  =    -14855.54467936
  -Hartree energ DENC   =      -142.81647910
  -exchange      EXHF   =         0.00000000
  -V(xc)+E(xc)   XCENC  =      -775.51600372
  PAW double counting   =     32122.49643306   -30369.77252408
  entropy T*S    EENTRO =        -0.04397343
  eigenvalues    EBANDS =      3008.62852599
  atomic energy  EATOM  =     10306.12861560
  Solvation  Ediel_sol  =         0.00000000
  ---------------------------------------------------
  free energy    TOTEN  =      -390.29493955 eV

  energy without entropy =     -390.25096611  energy(sigma->0) =     -390.27295283


--------------------------------------------------------------------------------------------------------




--------------------------------------- Iteration      1(  14)  ---------------------------------------


    POTLOK:  cpu time    0.0526: real time    0.0529
    SETDIJ:  cpu time    0.0350: real time    0.0351
    EDDIAG:  cpu time    0.3364: real time    0.3384
  RMM-DIIS:  cpu time    0.9029: real time    0.9143
    ORTHCH:  cpu time    0.0991: real time    0.0998
       DOS:  cpu time    0.0004: real time    0.0004
    CHARGE:  cpu time    0.0450: real time    0.0452
    MIXING:  cpu time    0.0013: real time    0.0013
    --------------------------------------------
      LOOP:  cpu time    1.4727: real time    1.4874

 eigenvalue-minimisations  :  1329
 total energy-change (2. order) :-0.7299332E+01  (-0.6850524E+00)
 number of electron     400.0000104 magnetization      13.3464180
 augmentation part      -23.8530894 magnetization       4.8314550

 Broyden mixing:
  rms(total) = 0.17931E+01    rms(broyden)= 0.17931E+01
  rms(prec ) = 0.20259E+01
  weight for this iteration     100.00

 eigenvalues of (default mixing * dielectric matrix)
  average eigenvalue GAMMA=   1.4823
  2.3799  0.5846

 Free energy of the ion-electron system (eV)
  ---------------------------------------------------
  alpha Z        PSCENC =       316.14514549
  Ewald energy   TEWEN  =    -14855.54467936
  -Hartree energ DENC   =      -157.84269874
  -exchange      EXHF   =         0.00000000
  -V(xc)+E(xc)   XCENC  =      -770.36094687
  PAW double counting   =     71363.24191280   -69616.83323592
  entropy T*S    EENTRO =        -0.04596988
  eigenvalues    EBANDS =      3017.51758516
  atomic energy  EATOM  =     10306.12861560
  Solvation  Ediel_sol  =         0.00000000
  ---------------------------------------------------
  free energy    TOTEN  =      -397.59427172 eV

  energy without entropy =     -397.54830184  energy(sigma->0) =     -397.57128678


--------------------------------------------------------------------------------------------------------




--------------------------------------- Iteration      1(  15)  ---------------------------------------


    POTLOK:  cpu time    0.0525: real time    0.0528
    SETDIJ:  cpu time    0.0351: real time    0.0352
    EDDIAG:  cpu time    0.3351: real time    0.3371
  RMM-DIIS:  cpu time    0.9400: real time    0.9521
    ORTHCH:  cpu time    0.0991: real time    0.0998
       DOS:  cpu time    0.0004: real time    0.0004
    CHARGE:  cpu time    0.0438: real time    0.0440
    MIXING:  cpu time    0.0014: real time    0.0014
    --------------------------------------------
      LOOP:  cpu time    1.5073: real time    1.5226

 eigenvalue-minimisations  :  1393
 total energy-change (2. order) :-0.7272773E+00  (-0.1441356E+00)
 number of electron     400.0000101 magnetization       8.9438101
 augmentation part      -23.8979019 magnetization       5.1028555

 Broyden mixing:
  rms(total) = 0.38638E+00    rms(broyden)= 0.38637E+00
  rms(prec ) = 0.46852E+00
  weight for this iteration     100.00

 eigenvalues of (default mixing * dielectric matrix)
  average eigenvalue GAMMA=   1.2991
  2.3978  0.8979  0.6017

 Free energy of the ion-electron system (eV)
  ---------------------------------------------------
  alpha Z        PSCENC =       316.14514549
  Ewald energy   TEWEN  =    -14855.54467936
  -Hartree energ DENC   =      -167.19424084
  -exchange      EXHF   =         0.00000000
  -V(xc)+E(xc)   XCENC  =      -767.41994528
  PAW double counting   =     93090.68220976   -91347.73221310
  entropy T*S    EENTRO =        -0.04833423
  eigenvalues    EBANDS =      3026.66189290
  atomic energy  EATOM  =     10306.12861560
  Solvation  Ediel_sol  =         0.00000000
  ---------------------------------------------------
  free energy    TOTEN  =      -398.32154907 eV

  energy without entropy =     -398.27321484  energy(sigma->0) =     -398.29738195


--------------------------------------------------------------------------------------------------------




--------------------------------------- Iteration      1(  16)  ---------------------------------------


    POTLOK:  cpu time    0.0530: real time    0.0551
    SETDIJ:  cpu time    0.0351: real time    0.0352
    EDDIAG:  cpu time    0.3368: real time    0.3388
  RMM-DIIS:  cpu time    0.9231: real time    0.9347
    ORTHCH:  cpu time    0.0994: real time    0.1000
       DOS:  cpu time    0.0004: real time    0.0004
    CHARGE:  cpu time    0.0441: real time    0.0443
    MIXING:  cpu time    0.0015: real time    0.0015
    --------------------------------------------
      LOOP:  cpu time    1.4933: real time    1.5100

 eigenvalue-minimisations  :  1395
 total energy-change (2. order) :-0.1633487E+00  (-0.4199615E-01)
 number of electron     400.0000102 magnetization       5.5896852
 augmentation part      -23.9151205 magnetization       2.8809865

 Broyden mixing:
  rms(total) = 0.24927E+00    rms(broyden)= 0.24927E+00
  rms(prec ) = 0.28342E+00
  weight for this iteration     100.00

 eigenvalues of (default mixing * dielectric matrix)
  average eigenvalue GAMMA=   1.3517
  2.3730  1.6342  0.7800  0.6196

 Free energy of the ion-electron system (eV)
  ---------------------------------------------------
  alpha Z        PSCENC =       316.14514549
  Ewald energy   TEWEN  =    -14855.54467936
  -Hartree energ DENC   =      -165.37791817
  -exchange      EXHF   =         0.00000000
  -V(xc)+E(xc)   XCENC  =      -767.26867139
  PAW double counting   =     93570.13384208   -91827.40171691
  entropy T*S    EENTRO =        -0.04307326
  eigenvalues    EBANDS =      3024.74355819
  atomic energy  EATOM  =     10306.12861560
  Solvation  Ediel_sol  =         0.00000000
  ---------------------------------------------------
  free energy    TOTEN  =      -398.48489774 eV

  energy without entropy =     -398.44182448  energy(sigma->0) =     -398.46336111


--------------------------------------------------------------------------------------------------------




--------------------------------------- Iteration      1(  17)  ---------------------------------------


    POTLOK:  cpu time    0.0525: real time    0.0528
    SETDIJ:  cpu time    0.0351: real time    0.0352
    EDDIAG:  cpu time    0.3356: real time    0.3377
  RMM-DIIS:  cpu time    0.9439: real time    0.9557
    ORTHCH:  cpu time    0.0989: real time    0.0995
       DOS:  cpu time    0.0004: real time    0.0004
    CHARGE:  cpu time    0.0438: real time    0.0441
    MIXING:  cpu time    0.0016: real time    0.0016
    --------------------------------------------
      LOOP:  cpu time    1.5118: real time    1.5270

 eigenvalue-minimisations  :  1424
 total energy-change (2. order) :-0.8765370E-01  (-0.1034645E-01)
 number of electron     400.0000102 magnetization       2.8076604
 augmentation part      -23.9251391 magnetization       0.8689615

 Broyden mixing:
  rms(total) = 0.14305E+00    rms(broyden)= 0.14305E+00
  rms(prec ) = 0.16682E+00
  weight for this iteration     100.00

 eigenvalues of (default mixing * dielectric matrix)
  average eigenvalue GAMMA=   1.3797
  2.3079  2.3079  0.9432  0.6171  0.7225

 Free energy of the ion-electron system (eV)
  ---------------------------------------------------
  alpha Z        PSCENC =       316.14514549
  Ewald energy   TEWEN  =    -14855.54467936
  -Hartree energ DENC   =      -164.37074052
  -exchange      EXHF   =         0.00000000
  -V(xc)+E(xc)   XCENC  =      -767.15257071
  PAW double counting   =     93275.45546173   -91532.84739651
  entropy T*S    EENTRO =        -0.03890845
  eigenvalues    EBANDS =      3023.65252129
  atomic energy  EATOM  =     10306.12861560
  Solvation  Ediel_sol  =         0.00000000
  ---------------------------------------------------
  free energy    TOTEN  =      -398.57255144 eV

  energy without entropy =     -398.53364299  energy(sigma->0) =     -398.55309721


--------------------------------------------------------------------------------------------------------




--------------------------------------- Iteration      1(  18)  ---------------------------------------


    POTLOK:  cpu time    0.0524: real time    0.0528
    SETDIJ:  cpu time    0.0351: real time    0.0352
    EDDIAG:  cpu time    0.3366: real time    0.3386
  RMM-DIIS:  cpu time    0.9215: real time    0.9330
    ORTHCH:  cpu time    0.0993: real time    0.1000
       DOS:  cpu time    0.0004: real time    0.0004
    CHARGE:  cpu time    0.0437: real time    0.0439
    MIXING:  cpu time    0.0017: real time    0.0017
    --------------------------------------------
      LOOP:  cpu time    1.4906: real time    1.5056

 eigenvalue-minimisations  :  1398
 total energy-change (2. order) :-0.4346603E-01  (-0.4142239E-02)
 number of electron     400.0000102 magnetization       1.5146484
 augmentation part      -23.9316935 magnetization       0.1671528

 Broyden mixing:
  rms(total) = 0.62736E-01    rms(broyden)= 0.62734E-01
  rms(prec ) = 0.73938E-01
  weight for this iteration     100.00

 eigenvalues of (default mixing * dielectric matrix)
  average eigenvalue GAMMA=   1.3639
  2.5918  2.3914  1.1254  0.8617  0.6067  0.6067

 Free energy of the ion-electron system (eV)
  ---------------------------------------------------
  alpha Z        PSCENC =       316.14514549
  Ewald energy   TEWEN  =    -14855.54467936
  -Hartree energ DENC   =      -163.81009719
  -exchange      EXHF   =         0.00000000
  -V(xc)+E(xc)   XCENC  =      -767.02599250
  PAW double counting   =     92892.75717865   -91150.25817251
  entropy T*S    EENTRO =        -0.04147693
  eigenvalues    EBANDS =      3023.03346128
  atomic energy  EATOM  =     10306.12861560
  Solvation  Ediel_sol  =         0.00000000
  ---------------------------------------------------
  free energy    TOTEN  =      -398.61601747 eV

  energy without entropy =     -398.57454054  energy(sigma->0) =     -398.59527900


--------------------------------------------------------------------------------------------------------




--------------------------------------- Iteration      1(  19)  ---------------------------------------


    POTLOK:  cpu time    0.0524: real time    0.0527
    SETDIJ:  cpu time    0.0351: real time    0.0352
    EDDIAG:  cpu time    0.3371: real time    0.3390
  RMM-DIIS:  cpu time    0.9460: real time    0.9579
    ORTHCH:  cpu time    0.0992: real time    0.0998
       DOS:  cpu time    0.0004: real time    0.0004
    CHARGE:  cpu time    0.0437: real time    0.0439
    MIXING:  cpu time    0.0019: real time    0.0019
    --------------------------------------------
      LOOP:  cpu time    1.5156: real time    1.5308

 eigenvalue-minimisations  :  1421
 total energy-change (2. order) :-0.8750090E-02  (-0.1044689E-02)
 number of electron     400.0000102 magnetization       0.9482433
 augmentation part      -23.9338073 magnetization       0.0273577

 Broyden mixing:
  rms(total) = 0.28283E-01    rms(broyden)= 0.28281E-01
  rms(prec ) = 0.33917E-01
  weight for this iteration     100.00

 eigenvalues of (default mixing * dielectric matrix)
  average eigenvalue GAMMA=   1.3568
  2.8866  2.3769  1.2167  1.0326  0.8057  0.6133  0.5661

 Free energy of the ion-electron system (eV)
  ---------------------------------------------------
  alpha Z        PSCENC =       316.14514549
  Ewald energy   TEWEN  =    -14855.54467936
  -Hartree energ DENC   =      -164.07065136
  -exchange      EXHF   =         0.00000000
  -V(xc)+E(xc)   XCENC  =      -766.94594054
  PAW double counting   =     92686.27327089   -90943.83512950
  entropy T*S    EENTRO =        -0.04712317
  eigenvalues    EBANDS =      3023.27172440
  atomic energy  EATOM  =     10306.12861560
  Solvation  Ediel_sol  =         0.00000000
  ---------------------------------------------------
  free energy    TOTEN  =      -398.62476756 eV

  energy without entropy =     -398.57764438  energy(sigma->0) =     -398.60120597


--------------------------------------------------------------------------------------------------------




--------------------------------------- Iteration      1(  20)  ---------------------------------------


    POTLOK:  cpu time    0.0524: real time    0.0527
    SETDIJ:  cpu time    0.0351: real time    0.0352
    EDDIAG:  cpu time    0.3365: real time    0.3386
  RMM-DIIS:  cpu time    0.9474: real time    0.9595
    ORTHCH:  cpu time    0.0991: real time    0.0998
       DOS:  cpu time    0.0004: real time    0.0004
    CHARGE:  cpu time    0.0436: real time    0.0438
    MIXING:  cpu time    0.0020: real time    0.0020
    --------------------------------------------
      LOOP:  cpu time    1.5165: real time    1.5320

 eigenvalue-minimisations  :  1440
 total energy-change (2. order) :-0.2191440E-02  (-0.3578954E-03)
 number of electron     400.0000102 magnetization       0.6148754
 augmentation part      -23.9340530 magnetization      -0.0405345

 Broyden mixing:
  rms(total) = 0.14531E-01    rms(broyden)= 0.14529E-01
  rms(prec ) = 0.18284E-01
  weight for this iteration     100.00

 eigenvalues of (default mixing * dielectric matrix)
  average eigenvalue GAMMA=   1.3686
  3.1971  2.3276  1.5996  1.1446  0.8563  0.6601  0.6194  0.5444

 Free energy of the ion-electron system (eV)
  ---------------------------------------------------
  alpha Z        PSCENC =       316.14514549
  Ewald energy   TEWEN  =    -14855.54467936
  -Hartree energ DENC   =      -164.14615970
  -exchange      EXHF   =         0.00000000
  -V(xc)+E(xc)   XCENC  =      -766.92232565
  PAW double counting   =     92549.19707886   -90806.77815973
  entropy T*S    EENTRO =        -0.05073057
  eigenvalues    EBANDS =      3023.34425608
  atomic energy  EATOM  =     10306.12861560
  Solvation  Ediel_sol  =         0.00000000
  ---------------------------------------------------
  free energy    TOTEN  =      -398.62695900 eV

  energy without entropy =     -398.57622842  energy(sigma->0) =     -398.60159371


--------------------------------------------------------------------------------------------------------




--------------------------------------- Iteration      1(  21)  ---------------------------------------


    POTLOK:  cpu time    0.0524: real time    0.0527
    SETDIJ:  cpu time    0.0351: real time    0.0352
    EDDIAG:  cpu time    0.3356: real time    0.3377
  RMM-DIIS:  cpu time    0.9379: real time    0.9497
    ORTHCH:  cpu time    0.1001: real time    0.1008
       DOS:  cpu time    0.0004: real time    0.0004
    CHARGE:  cpu time    0.0438: real time    0.0440
    MIXING:  cpu time    0.0022: real time    0.0022
    --------------------------------------------
      LOOP:  cpu time    1.5074: real time    1.5226

 eigenvalue-minimisations  :  1406
 total energy-change (2. order) :-0.8573832E-03  (-0.1499571E-03)
 number of electron     400.0000102 magnetization       0.4111268
 augmentation part      -23.9340562 magnetization      -0.0420391

 Broyden mixing:
  rms(total) = 0.87367E-02    rms(broyden)= 0.87345E-02
  rms(prec ) = 0.10141E-01
  weight for this iteration     100.00

 eigenvalues of (default mixing * dielectric matrix)
  average eigenvalue GAMMA=   1.3971
  3.5728  2.1149  2.1149  1.1801  0.9944  0.8318  0.6188  0.6188  0.5278

 Free energy of the ion-electron system (eV)
  ---------------------------------------------------
  alpha Z        PSCENC =       316.14514549
  Ewald energy   TEWEN  =    -14855.54467936
  -Hartree energ DENC   =      -164.17790611
  -exchange      EXHF   =         0.00000000
  -V(xc)+E(xc)   XCENC  =      -766.91375451
  PAW double counting   =     92493.62905308   -90751.21808947
  entropy T*S    EENTRO =        -0.05231385
  eigenvalues    EBANDS =      3023.37611275
  atomic energy  EATOM  =     10306.12861560
  Solvation  Ediel_sol  =         0.00000000
  ---------------------------------------------------
  free energy    TOTEN  =      -398.62781638 eV

  energy without entropy =     -398.57550253  energy(sigma->0) =     -398.60165945


--------------------------------------------------------------------------------------------------------




--------------------------------------- Iteration      1(  22)  ---------------------------------------


    POTLOK:  cpu time    0.0524: real time    0.0527
    SETDIJ:  cpu time    0.0351: real time    0.0352
    EDDIAG:  cpu time    0.3363: real time    0.3382
  RMM-DIIS:  cpu time    0.9310: real time    0.9453
    ORTHCH:  cpu time    0.0993: real time    0.1000
       DOS:  cpu time    0.0004: real time    0.0004
    CHARGE:  cpu time    0.0436: real time    0.0439
    MIXING:  cpu time    0.0023: real time    0.0024
    --------------------------------------------
      LOOP:  cpu time    1.5003: real time    1.5179

 eigenvalue-minimisations  :  1423
 total energy-change (2. order) :-0.3981058E-03  (-0.7363630E-04)
[...]
   -.440E+01 -.149E+02 -.290E+01   0.749E+01 0.126E+02 0.233E+01   -.295E+01 0.405E+01 0.190E+01   -.283E-03 -.181E-02 0.463E-03
   0.705E+01 -.192E+02 -.143E+02   -.539E+01 0.181E+02 0.139E+02   -.333E+01 0.206E+01 0.203E+01   0.216E-03 0.287E-02 -.976E-03
   -.165E+02 -.646E+00 0.295E+01   0.172E+02 0.935E+00 -.201E+01   -.408E-01 -.192E+00 -.145E+01   -.649E-03 0.294E-02 0.107E-02
   0.102E+02 -.464E+01 -.296E+02   -.945E+01 0.311E+01 0.260E+02   -.157E+01 -.413E-01 0.869E+01   0.196E-03 0.328E-02 -.123E-03
   0.117E+01 -.148E+02 -.233E+02   -.139E+01 0.146E+02 0.230E+02   0.135E+01 0.234E+01 0.159E+01   0.160E-03 -.458E-03 -.153E-04
   -.238E+02 0.480E+01 0.183E+02   0.205E+02 -.601E+01 -.157E+02   0.738E+01 0.186E+01 -.488E+01   -.182E-03 0.152E-03 -.151E-02
   -.127E+02 -.579E+01 -.130E+02   0.130E+02 0.304E+01 0.120E+02   0.193E+01 0.547E+01 0.198E+01   -.987E-04 -.166E-02 0.134E-02
   0.775E+01 0.560E+01 -.159E+00   -.646E+01 -.324E+01 -.533E+00   -.246E+01 -.427E+01 -.125E+00   0.274E-03 -.361E-02 -.286E-04
   -.607E+01 -.128E+02 -.145E+02   0.361E+01 0.106E+02 0.124E+02   0.604E+01 0.331E+01 0.453E+01   0.443E-03 0.105E-02 0.799E-03
   -.965E+01 -.632E+01 0.104E+01   0.872E+01 0.658E+01 -.708E+00   0.282E+01 -.484E+00 -.136E+01   0.450E-03 -.312E-02 0.709E-03
   -.421E+00 -.159E+01 -.981E+01   0.847E+00 -.264E+01 0.120E+02   -.832E+00 0.877E+01 -.456E+01   0.856E-04 0.334E-02 0.646E-03
   -.146E+02 0.589E+01 -.135E+02   0.152E+02 -.374E+01 0.130E+02   -.148E+00 -.292E+01 0.996E+00   -.403E-03 -.161E-02 -.728E-03
   -.406E+01 -.141E+02 0.518E+01   0.383E+01 0.138E+02 -.349E+01   0.460E+00 0.154E+01 -.242E+01   -.191E-03 0.182E-02 0.331E-03
   -.170E+02 -.352E+01 -.913E+01   0.144E+02 0.338E+01 0.861E+01   0.557E+01 0.249E+00 0.176E+01   -.278E-03 0.251E-02 -.969E-03
   0.924E+01 0.906E+01 -.515E+01   -.905E+01 -.782E+01 0.663E+01   -.967E+00 -.242E+01 -.121E+01   -.181E-04 -.294E-02 0.958E-03
   -.150E+01 -.261E+01 0.124E+02   0.126E+01 0.104E+01 -.855E+01   0.951E+00 0.122E+01 -.585E+01   0.429E-03 -.727E-03 -.309E-03
   -.129E+02 0.206E+02 -.102E+02   0.114E+02 -.200E+02 0.871E+01   0.294E+01 -.230E+01 0.423E+01   -.372E-03 -.311E-02 -.105E-02
   -.174E+01 -.489E+01 -.245E+02   -.841E+00 0.562E+01 0.242E+02   0.485E+01 -.125E+00 0.371E+01   0.245E-03 0.259E-03 0.344E-03
   -.203E+02 -.863E+01 -.204E+02   0.180E+02 0.880E+01 0.188E+02   0.676E+01 0.140E+01 0.520E+01   0.194E-03 -.282E-02 0.779E-03
   -.101E+02 -.312E+01 0.248E+01   0.812E+01 0.467E+01 -.419E+01   0.389E+01 -.291E+01 0.369E+01   0.134E-03 0.518E-03 -.528E-03
   0.873E+01 -.102E+02 -.139E+02   -.798E+01 0.961E+01 0.128E+02   -.175E+01 0.107E+01 0.245E+01   -.192E-03 -.311E-02 -.748E-04
   -.519E+01 0.210E+02 0.211E+02   0.598E+01 -.188E+02 -.187E+02   -.475E+00 -.471E+01 -.559E+01   0.373E-03 -.298E-02 0.156E-03
   0.140E+02 0.169E+01 0.199E+02   -.150E+02 -.248E+01 -.181E+02   0.281E+00 0.758E+00 -.339E+01   -.124E-03 -.240E-02 -.512E-03
   0.160E+02 0.925E+00 0.858E+01   -.150E+02 -.137E+01 -.109E+02   -.141E+01 -.515E-01 0.236E+01   0.452E-03 0.275E-02 0.119E-02
   0.131E+02 0.717E+01 -.232E+02   -.120E+02 -.622E+01 0.238E+02   -.316E+01 -.175E+01 0.157E+01   -.389E-03 -.462E-05 -.601E-03
   -.216E+02 0.957E+01 0.180E+02   0.187E+02 -.103E+02 -.177E+02   0.454E+01 0.154E+01 -.467E+00   -.993E-04 -.136E-02 -.148E-03
   0.129E+01 0.922E+01 -.144E+02   -.129E+01 -.800E+01 0.137E+02   0.136E+01 -.160E+01 0.125E+01   0.417E-03 -.746E-03 -.127E-02
   0.812E+01 0.816E+01 0.153E+02   -.931E+01 -.839E+01 -.134E+02   0.216E+00 -.618E-01 -.595E+01   -.132E-03 -.131E-02 0.918E-03
   -.177E+02 -.709E+01 0.875E+01   0.144E+02 0.493E+01 -.874E+01   0.689E+01 0.385E+01 -.865E+00   0.261E-03 -.731E-03 -.837E-03
   0.607E+01 -.182E+02 0.138E+02   -.564E+01 0.163E+02 -.132E+02   -.372E+00 0.526E+01 -.194E+01   0.156E-03 -.180E-02 -.788E-03
   -.173E+02 -.673E+01 -.125E+01   0.169E+02 0.669E+01 0.198E+01   0.144E+01 -.112E+01 -.328E+01   -.141E-03 0.125E-02 0.816E-03
   -.112E+02 -.508E+01 -.279E+02   0.995E+01 0.539E+01 0.257E+02   0.330E+01 -.190E+01 0.562E+01   0.459E-05 -.524E-03 0.117E-02
   -.175E+02 -.160E+02 0.121E+01   0.164E+02 0.163E+02 -.911E+00   0.150E+01 -.237E+00 -.415E+00   -.472E-03 0.881E-03 0.756E-03
   0.238E+02 -.565E+01 0.200E+02   -.218E+02 0.584E+01 -.186E+02   -.519E+01 0.719E+00 -.327E+01   0.104E-03 0.245E-02 -.972E-03
   0.122E+02 0.350E+01 0.135E+02   -.112E+02 -.253E+01 -.109E+02   -.207E+01 -.130E+01 -.376E+01   0.392E-03 0.170E-02 -.574E-03
   -.112E+02 -.141E+02 0.162E+02   0.117E+02 0.137E+02 -.151E+02   0.601E+00 0.107E+01 -.332E+01   -.807E-03 0.276E-02 -.109E-02
   -.103E+02 0.173E+02 0.138E+01   0.101E+02 -.161E+02 -.351E+00   0.106E+01 -.208E+01 -.312E+01   -.544E-03 -.445E-03 0.118E-02
   -.160E+02 0.206E+02 -.317E+01   0.148E+02 -.179E+02 0.160E+01   0.200E+01 -.426E+01 0.240E+01   -.480E-03 -.418E-03 0.122E-02
   0.918E+01 0.113E+02 -.528E+01   -.978E+01 -.979E+01 0.399E+01   0.229E-01 -.358E+01 0.169E+01   0.416E-03 -.285E-02 -.136E-02
   0.174E+02 0.304E+02 -.149E+02   -.152E+02 -.278E+02 0.151E+02   -.516E+01 -.553E+01 -.161E+00   0.110E-03 0.654E-03 -.139E-02
   0.459E+01 -.158E+02 -.143E+02   -.489E+01 0.144E+02 0.113E+02   -.628E-01 0.378E+01 0.660E+01   -.535E-03 0.267E-02 0.991E-04
   0.140E+02 -.309E+01 0.127E+02   -.122E+02 0.424E+01 -.119E+02   -.341E+01 -.154E+01 -.160E+01   0.768E-03 0.264E-02 0.863E-03
   -.128E+02 0.362E+01 -.139E+02   0.115E+02 -.203E+01 0.144E+02   0.280E+01 -.315E+01 0.983E+00   -.180E-04 -.341E-02 0.118E-02
   0.176E+02 0.203E+01 -.113E+02   -.181E+02 -.182E+01 0.869E+01   -.516E+00 -.171E+01 0.489E+01   0.221E-03 -.980E-03 0.687E-04
   -.339E+01 0.168E+02 0.239E+02   0.377E+01 -.172E+02 -.230E+02   0.878E-01 -.498E+00 -.291E+01   0.530E-03 -.650E-03 0.712E-03
   0.784E+01 0.174E+02 0.107E+02   -.659E+01 -.164E+02 -.933E+01   -.213E+01 -.200E+01 -.381E+01   0.226E-03 0.292E-02 -.690E-04
   0.804E+01 0.122E+02 -.946E+01   -.751E+01 -.959E+01 0.689E+01   -.139E+01 -.411E+01 0.423E+01   0.520E-03 -.289E-02 -.669E-03
   -.594E+01 0.179E+01 -.767E+01   0.552E+01 -.136E+01 0.468E+01   0.329E+00 -.741E+00 0.597E+01   -.141E-03 0.338E-04 0.139E-02
   -.749E+01 0.128E+02 -.169E+02   0.674E+01 -.109E+02 0.170E+02   0.475E+00 -.360E+01 0.997E+00   -.365E-04 -.240E-02 0.927E-03
   0.156E+02 0.181E+02 0.145E+02   -.135E+02 -.159E+02 -.132E+02   -.607E+01 -.457E+01 -.320E+01   -.126E-03 -.265E-02 -.588E-03
   0.398E+01 -.246E+02 0.441E+01   -.215E+01 0.229E+02 -.252E+01   -.373E+01 0.440E+01 -.412E+01   -.105E-03 -.307E-02 0.172E-03
   0.707E+01 -.597E+01 -.588E+01   -.702E+01 0.518E+01 0.585E+01   -.122E+01 0.172E+01 -.342E+00   -.419E-03 -.316E-02 0.199E-03
   -.759E+01 0.121E+01 0.111E+02   0.710E+01 -.121E+01 -.979E+01   0.235E+01 0.664E+00 -.302E+01   0.387E-03 0.280E-02 -.576E-03
   0.185E+02 0.523E+01 0.254E+02   -.172E+02 -.452E+01 -.239E+02   -.275E+01 0.644E+00 -.465E+01   -.140E-03 -.236E-02 -.215E-03
   0.763E+01 0.133E+02 0.403E+01   -.645E+01 -.128E+02 -.479E+01   -.300E+01 -.590E+00 -.203E+00   -.485E-03 -.147E-02 -.132E-02
   0.872E+01 -.228E+02 0.175E+02   -.797E+01 0.185E+02 -.173E+02   -.247E+01 0.973E+01 -.254E+01   -.245E-03 0.298E-02 0.970E-03
   -.170E+02 -.375E+01 0.200E+02   0.153E+02 0.368E+01 -.171E+02   0.324E+01 0.283E+00 -.533E+01   -.140E-03 0.572E-04 -.634E-03
   0.474E+01 0.257E+02 0.474E+01   -.524E+01 -.229E+02 -.723E+01   0.958E+00 -.503E+01 0.276E+01   0.319E-03 0.144E-02 0.145E-02
   0.220E+02 -.140E+02 0.987E+01   -.204E+02 0.133E+02 -.105E+02   -.428E+01 0.170E+01 0.132E+01   0.331E-03 0.230E-02 0.174E-04
   0.594E+01 0.731E+00 0.803E+01   -.580E+01 -.401E+01 -.121E+02   0.564E+00 0.644E+01 0.641E+01   0.112E-04 -.834E-03 -.187E-03
   -.120E+02 -.753E+01 0.106E+01   0.110E+02 0.486E+01 -.307E+01   0.232E+01 0.414E+01 0.360E+01   -.424E-04 0.244E-02 0.419E-03
   -.183E+01 -.765E+01 0.386E+01   0.225E+01 0.594E+01 -.417E+01   -.897E+00 0.204E+01 0.267E+00   -.104E-03 -.263E-02 0.610E-03
   0.193E+01 -.266E+02 0.561E+01   -.122E+01 0.264E+02 -.551E+01   -.735E+00 0.182E+01 0.981E-01   0.660E-03 0.224E-02 -.607E-03
   0.182E+02 -.292E+01 -.621E+01   -.162E+02 0.151E+01 0.464E+01   -.456E+01 0.257E+01 0.268E+01   -.164E-03 -.120E-02 -.287E-03
   -.189E+01 0.718E+01 0.164E+02   0.123E+01 -.399E+01 -.156E+02   0.179E+01 -.517E+01 -.395E+01   -.295E-03 0.215E-02 -.852E-03
   0.105E+02 0.285E+01 0.870E+01   -.108E+02 -.134E+01 -.649E+01   0.266E+00 -.282E+01 -.561E+01   0.170E-03 -.130E-02 0.348E-03
   -.748E+01 -.935E+01 -.145E+02   0.790E+01 0.764E+01 0.127E+02   0.551E+00 0.184E+01 0.323E+01   0.585E-03 0.274E-02 -.122E-02
   0.923E+01 -.144E+01 -.144E+02   -.816E+01 0.243E+01 0.141E+02   -.276E+01 -.115E+01 0.163E+01   0.462E-04 -.282E-02 0.123E-02
   -.840E+01 -.220E+02 0.113E+02   0.818E+01 0.207E+02 -.108E+02   0.700E+00 0.359E+01 -.108E+01   -.532E-03 -.143E-02 -.951E-03
   -.787E+01 -.472E+01 0.267E+02   0.733E+01 0.353E+01 -.242E+02   0.519E+00 0.153E+01 -.641E+01   -.192E-03 -.137E-02 0.688E-05
   -.804E+01 0.722E+01 0.444E+01   0.983E+01 -.888E+01 -.486E+01   -.223E+01 0.968E+00 0.167E+01   -.448E-03 -.319E-02 -.142E-02
 -----------------------------------------------------------------------------------------------
   0.644E+01 0.515E+01 -.659E+01   0.227E-12 -.799E-13 -.210E-12   -.644E+01 -.514E+01 0.660E+01   0.936E-04 -.272E-02 0.131E-02
 
 
 POSITION                                       TOTAL-FORCE (eV/Angst)
 -----------------------------------------------------------------------------------
      0.60571      1.34952      0.04677        -1.186519      1.186596     -1.710852
      1.14629      7.63605      4.00961        -0.087594      1.447489      0.082445
      2.97248      5.84679      9.30114        -1.103792      0.401233     -0.586276
      0.63701      3.02876      1.99402         1.239654     -1.586724      0.672895
      4.08879      0.46045      1.63170         3.649640     -3.628039      1.640691
      5.40019      0.96209      6.30814        -0.831328      1.269390     -2.830123
      6.10833      5.22248      3.29926         0.842734     -0.271039      0.739833
      1.12138      2.69533      7.89685        -3.564956     -1.250113      2.328869
      0.27608      0.63543      2.08955         2.670616     -0.862582      1.320310
      6.87308      7.25966      5.18069        -0.615597     -0.244969      0.617626
      8.47900      6.77948      6.94684        -1.620989     -3.079429     -2.825177
      4.77465      3.44371      6.37427        -0.027557     -0.632594     -0.628194
      7.65224      8.73916      6.60377        -1.217948      3.731840     -0.512142
      6.50519      9.79558      2.36473        -1.888182      0.503934      1.665339
      9.30805      6.99653      0.16687        -4.363060      1.268863      1.498499
      8.42037      1.00330      3.40594        -0.123958     -0.137638      1.160362
      1.18347      0.89838      6.26207        -4.011095     -2.638122     -1.169055
      9.26125      3.10388      9.44861         2.736933      0.373743      2.228986
      1.77545      8.19420      9.51584         1.036459     -2.688517     -1.844654
      8.58916      3.03089      4.64348         1.171172      0.767419      0.391921
     10.14911      9.23787     10.06982        -2.920664      0.154474      0.911128
      4.87076      8.18648      5.88556        -0.750024     -0.372913     -1.114215
      0.27335      6.08096      5.71615         0.457583     -1.043750     -0.742714
      2.73772      1.91587      1.00893        -3.393883      3.956260     -0.891625
      5.27674      9.57928      7.60792         2.037009     -1.420255      3.430079
      5.98293      7.70822      3.25445        -0.461499      0.034802     -0.083593
      6.80254      8.31910      0.68425         2.294277     -4.948706      1.101324
      7.67664      8.84322      8.95003         1.255052      2.449736     -1.279538
      7.15821      0.85713      7.68531        -0.039673     -1.299427      0.352803
      4.30922      5.51867      7.24445         0.138370      1.731273      1.331621
      8.40533      8.63285      3.67430        -1.666368      0.979897      1.629504
      4.09302      9.69634      9.55774         0.620426      0.099735     -0.512370
      2.34626      8.74851      2.08471        -0.798585     -1.562272      5.024158
      8.83793      1.93651      1.26500         1.129742      2.122758      1.288717
      3.95973      1.58579      4.61261         4.086743      0.662798     -2.334929
      6.07240      2.90538      8.34118         2.259023      2.714543      0.995862
      2.96178      4.55798      1.62045        -1.159558     -1.915488     -0.817551
      9.99594      7.32656      8.18562         3.571005      1.111649      2.417172
      1.29025      3.71008     10.09123         1.889702     -0.220553     -1.031355
      2.13623      9.90772      0.51438        -0.406468      4.538265     -2.369733
      4.40080      2.63017      2.30006         0.451173     -0.771282      0.469798
      3.44403      7.71534      7.95890         0.225478      1.193287     -0.731853
      6.81545      0.00973      4.76727         2.971749      0.110366      1.234894
      2.75952      4.08188      7.90229        -0.775137     -1.184044      0.279171
      0.44733      6.25653      2.49476         0.712026     -0.352521     -2.026497
      8.03007      4.33271      2.66170         1.428163     -1.663878      2.768175
      2.43499      6.76891      1.14356         2.276745      0.601581      3.396769
     10.12741      4.90831      8.07945         4.509050      1.574889      3.544525
      2.68474      7.01946      5.39645         1.879836     -1.358045      1.981891
      9.91130      4.68713      1.02204        -1.008385      0.492416      1.420667
      8.90801      4.51751      6.51537         0.311782     -2.566502     -3.198631
      2.77638      4.55453      5.76191        -0.664620     -0.035100     -1.651915
      1.33120     10.16030      8.40348        -0.397691     -0.495693      0.056088
      6.66627      1.79425      1.94850        -2.089805     -0.809070      2.149864
      6.89821      2.62848      6.24955         1.663645      0.848302     -0.147872
      0.30101      2.03021      4.08642         1.361056     -0.374846      0.605317
      7.12328      2.55347      0.08026        -0.980509     -0.292254     -4.086290
      8.78091      6.30076      4.18815         3.602201      1.690747     -0.856243
      2.47959      5.46859      3.73358         0.056084      3.357713     -1.379096
      4.38642      7.31485     10.00761         1.040040     -1.157037     -2.552385
      7.40072      6.71877      8.85212         2.069818     -1.597036      3.391474
      5.64958      7.34827      7.81712         0.334452      0.060449     -0.111002
      2.84317      9.71855      5.06204        -3.215534      0.907633     -1.832453
      9.12524      0.67199      5.81304        -1.125806     -0.332971     -1.086578
      4.82915      9.78880      4.14014         1.090609      0.659095     -2.161561
      4.27354      1.92047      8.03845         0.837990     -0.901208     -2.093050
      4.84954      2.02286     10.18902         0.761801     -1.610991      0.827743
      2.28018      3.37750      3.62549        -0.574131     -2.035659      0.392152
      2.49014      1.22695      3.11499        -2.876786     -2.940156     -0.027002
      4.65546      8.40629      1.46002        -0.370414      2.303801      3.608202
      9.58875      9.70637      7.72005        -1.655189     -0.380889     -0.718077
      3.81847      3.95353      9.78289         1.526758     -1.566168      1.482991
      1.84955      6.18154      7.27112        -1.100097     -1.494082      2.281589
      8.99547      2.31447      7.45788         0.466409     -0.931330     -1.983612
      8.53701      9.90175      1.47239        -0.871920     -0.978262     -2.407583
      0.14694      4.54647      3.71205        -0.853040     -1.504880      1.651420
      2.54940      1.56059      8.98578        -0.088063     -0.313838      2.972839
      5.58533      5.47569      9.27060        -0.274792     -1.679575      1.131856
      7.46826      5.07706      5.13979        -3.968169     -2.404225     -1.905924
      7.88284      4.58358      0.55349        -1.898474      2.635993     -2.229387
      5.74022      3.98466      1.15181        -1.176563      0.926002     -0.367344
     10.03110      8.36039      2.17889         1.866084      0.667723     -1.694540
      0.78086      3.48893      5.99062        -1.446391      1.351067     -3.114795
      6.51966      2.56862      4.04160        -1.828849     -0.043363     -0.963907
      6.33608     10.15565      0.01481        -1.720467      5.496468     -2.430060
      8.00602      6.85800      2.28512         1.522377      0.211654     -2.474349
      8.58300      0.96361      9.36104         0.464852     -2.295911      0.262849
      1.54622      8.40086      6.74871        -2.688403      0.915371      0.668361
      2.79969      2.12189      6.17023         0.710313      3.159730      2.319408
      3.13742      9.92665      7.15481         1.321035      1.469111      1.585944
      6.41862      4.98193      7.01376        -0.475548      0.325836     -0.041531
      9.70893      8.24134      5.61553        -0.024486      1.604422      0.194182
      4.38090      6.12180      2.30313        -2.555293      1.158787      1.104928
      3.59758      8.05969      3.78667         1.131550     -1.971874     -3.172074
      0.93173      6.08288     10.15329        -0.042464     -1.312561     -3.405822
      0.42235      9.80696      4.07098         0.970999      0.122469      1.472843
      7.94741      4.54200      8.48870        -1.677918     -0.164358      1.298207
      4.83094      5.74411      5.11919         0.479010      2.318595     -0.543448
      6.25075      6.19012      1.28597        -0.023807      0.339747     -3.952878
      4.52301      3.86910      4.04276        -0.441178     -0.687211      1.247560
 -----------------------------------------------------------------------------------
    total drift:                                0.007929      0.008134      0.020373


--------------------------------------------------------------------------------------------------------



  FREE ENERGIE OF THE ION-ELECTRON SYSTEM (eV)
  ---------------------------------------------------
  free  energy   TOTEN  =      -398.62854376 eV

  energy  without entropy=     -398.57465043  energy(sigma->0) =     -398.60159710
 


--------------------------------------------------------------------------------------------------------


    POTLOK:  cpu time    0.0892: real time    0.0895


--------------------------------------------------------------------------------------------------------


     LOOP+:  cpu time   35.3765: real time   36.0192
    4ORBIT:  cpu time    0.0000: real time    0.0000

 total amount of memory used by VASP MPI-rank0    53941. kBytes
=======================================================================

   base      :      30000. kBytes
   nonlr-proj:       8273. kBytes
   fftplans  :       1377. kBytes
   grid      :       7520. kBytes
   one-center:        614. kBytes
   wavefun   :       6157. kBytes
 
  
  
 General timing and accounting informations for this job:
 ========================================================
  
                  Total CPU time used (sec):       36.523
                            User time (sec):       35.122
                          System time (sec):        1.401
                         Elapsed time (sec):       38.164
  
                   Maximum memory used (kb):      175800.
                   Average memory used (kb):           0.
  
                          Minor page faults:       103388
                          Major page faults:            0
                 Voluntary context switches:          864
