BEGIN_CFG
 Size
    100
 Supercell
        10.211495      0.000000      0.000000
         0.000000     10.211495      0.000000
         0.000000      0.000000     10.211495
 AtomData:  id type       cartes_x      cartes_y      cartes_z           fx          fy          fz
             1    0       0.605710      1.349520      0.046770    -1.186519    1.186596   -1.710852
             2    0       1.146290      7.636050      4.009610    -0.087594    1.447489    0.082445
             3    0       2.972480      5.846790      9.301140    -1.103792    0.401233   -0.586276
             4    0       0.637010      3.028760      1.994020     1.239654   -1.586724    0.672895
             5    0       4.088790      0.460450      1.631700     3.649640   -3.628039    1.640691
             6    0       5.400190      0.962090      6.308140    -0.831328    1.269390   -2.830123
             7    0       6.108330      5.222480      3.299260     0.842734   -0.271039    0.739833
             8    0       1.121380      2.695330      7.896850    -3.564956   -1.250113    2.328869
             9    0       0.276080      0.635430      2.089550     2.670616   -0.862582    1.320310
            10    0       6.873080      7.259660      5.180690    -0.615597   -0.244969    0.617626
            11    0       8.479000      6.779480      6.946840    -1.620989   -3.079429   -2.825177
            12    0       4.774650      3.443710      6.374270    -0.027557   -0.632594   -0.628194
            13    0       7.652240      8.739160      6.603770    -1.217948    3.731840   -0.512142
            14    0       6.505190      9.795580      2.364730    -1.888182    0.503934    1.665339
            15    0       9.308050      6.996530      0.166870    -4.363060    1.268863    1.498499
            16    0       8.420370      1.003300      3.405940    -0.123958   -0.137638    1.160362
            17    0       1.183470      0.898380      6.262070    -4.011095   -2.638122   -1.169055
            18    0       9.261250      3.103880      9.448610     2.736933    0.373743    2.228986
            19    0       1.775450      8.194200      9.515840     1.036459   -2.688517   -1.844654
            20    0       8.589160      3.030890      4.643480     1.171172    0.767419    0.391921
            21    0      10.149110      9.237870     10.069820    -2.920664    0.154474    0.911128
            22    0       4.870760      8.186480      5.885560    -0.750024   -0.372913   -1.114215
            23    0       0.273350      6.080960      5.716150     0.457583   -1.043750   -0.742714
            24    0       2.737720      1.915870      1.008930    -3.393883    3.956260   -0.891625
            25    0       5.276740      9.579280      7.607920     2.037009   -1.420255    3.430079
            26    0       5.982930      7.708220      3.254450    -0.461499    0.034802   -0.083593
            27    0       6.802540      8.319100      0.684250     2.294277   -4.948706    1.101324
            28    0       7.676640      8.843220      8.950030     1.255052    2.449736   -1.279538
            29    0       7.158210      0.857130      7.685310    -0.039673   -1.299427    0.352803
            30    0       4.309220      5.518670      7.244450     0.138370    1.731273    1.331621
            31    0       8.405330      8.632850      3.674300    -1.666368    0.979897    1.629504
            32    0       4.093020      9.696340      9.557740     0.620426    0.099735   -0.512370
            33    0       2.346260      8.748510      2.084710    -0.798585   -1.562272    5.024158
            34    0       8.837930      1.936510      1.265000     1.129742    2.122758    1.288717
            35    0       3.959730      1.585790      4.612610     4.086743    0.662798   -2.334929
            36    0       6.072400      2.905380      8.341180     2.259023    2.714543    0.995862
            37    0       2.961780      4.557980      1.620450    -1.159558   -1.915488   -0.817551
            38    0       9.995940      7.326560      8.185620     3.571005    1.111649    2.417172
            39    0       1.290250      3.710080     10.091230     1.889702   -0.220553   -1.031355
            40    0       2.136230      9.907720      0.514380    -0.406468    4.538265   -2.369733
            41    0       4.400800      2.630170      2.300060     0.451173   -0.771282    0.469798
            42    0       3.444030      7.715340      7.958900     0.225478    1.193287   -0.731853
            43    0       6.815450      0.009730      4.767270     2.971749    0.110366    1.234894
            44    0       2.759520      4.081880      7.902290    -0.775137   -1.184044    0.279171
            45    0       0.447330      6.256530      2.494760     0.712026   -0.352521   -2.026497
            46    0       8.030070      4.332710      2.661700     1.428163   -1.663878    2.768175
            47    0       2.434990      6.768910      1.143560     2.276745    0.601581    3.396769
            48    0      10.127410      4.908310      8.079450     4.509050    1.574889    3.544525
            49    0       2.684740      7.019460      5.396450     1.879836   -1.358045    1.981891
            50    0       9.911300      4.687130      1.022040    -1.008385    0.492416    1.420667
            51    0       8.908010      4.517510      6.515370     0.311782   -2.566502   -3.198631
            52    0       2.776380      4.554530      5.761910    -0.664620   -0.035100   -1.651915
            53    0       1.331200     10.160300      8.403480    -0.397691   -0.495693    0.056088
            54    0       6.666270      1.794250      1.948500    -2.089805   -0.809070    2.149864
            55    0       6.898210      2.628480      6.249550     1.663645    0.848302   -0.147872
            56    0       0.301010      2.030210      4.086420     1.361056   -0.374846    0.605317
            57    0       7.123280      2.553470      0.080260    -0.980509   -0.292254   -4.086290
            58    0       8.780910      6.300760      4.188150     3.602201    1.690747   -0.856243
            59    0       2.479590      5.468590      3.733580     0.056084    3.357713   -1.379096
            60    0       4.386420      7.314850     10.007610     1.040040   -1.157037   -2.552385
            61    0       7.400720      6.718770      8.852120     2.069818   -1.597036    3.391474
            62    0       5.649580      7.348270      7.817120     0.334452    0.060449   -0.111002
            63    0       2.843170      9.718550      5.062040    -3.215534    0.907633   -1.832453
            64    0       9.125240      0.671990      5.813040    -1.125806   -0.332971   -1.086578
            65    0       4.829150      9.788800      4.140140     1.090609    0.659095   -2.161561
            66    0       4.273540      1.920470      8.038450     0.837990   -0.901208   -2.093050
            67    0       4.849540      2.022860     10.189020     0.761801   -1.610991    0.827743
            68    0       2.280180      3.377500      3.625490    -0.574131   -2.035659    0.392152
            69    0       2.490140      1.226950      3.114990    -2.876786   -2.940156   -0.027002
            70    0       4.655460      8.406290      1.460020    -0.370414    2.303801    3.608202
            71    0       9.588750      9.706370      7.720050    -1.655189   -0.380889   -0.718077
            72    0       3.818470      3.953530      9.782890     1.526758   -1.566168    1.482991
            73    0       1.849550      6.181540      7.271120    -1.100097   -1.494082    2.281589
            74    0       8.995470      2.314470      7.457880     0.466409   -0.931330   -1.983612
            75    0       8.537010      9.901750      1.472390    -0.871920   -0.978262   -2.407583
            76    0       0.146940      4.546470      3.712050    -0.853040   -1.504880    1.651420
            77    0       2.549400      1.560590      8.985780    -0.088063   -0.313838    2.972839
            78    0       5.585330      5.475690      9.270600    -0.274792   -1.679575    1.131856
            79    0       7.468260      5.077060      5.139790    -3.968169   -2.404225   -1.905924
            80    0       7.882840      4.583580      0.553490    -1.898474    2.635993   -2.229387
            81    0       5.740220      3.984660      1.151810    -1.176563    0.926002   -0.367344
            82    0      10.031100      8.360390      2.178890     1.866084    0.667723   -1.694540
            83    0       0.780860      3.488930      5.990620    -1.446391    1.351067   -3.114795
            84    0       6.519660      2.568620      4.041600    -1.828849   -0.043363   -0.963907
            85    0       6.336080     10.155650      0.014810    -1.720467    5.496468   -2.430060
            86    0       8.006020      6.858000      2.285120     1.522377    0.211654   -2.474349
            87    0       8.583000      0.963610      9.361040     0.464852   -2.295911    0.262849
            88    0       1.546220      8.400860      6.748710    -2.688403    0.915371    0.668361
            89    0       2.799690      2.121890      6.170230     0.710313    3.159730    2.319408
            90    0       3.137420      9.926650      7.154810     1.321035    1.469111    1.585944
            91    0       6.418620      4.981930      7.013760    -0.475548    0.325836   -0.041531
            92    0       9.708930      8.241340      5.615530    -0.024486    1.604422    0.194182
            93    0       4.380900      6.121800      2.303130    -2.555293    1.158787    1.104928
            94    0       3.597580      8.059690      3.786670     1.131550   -1.971874   -3.172074
            95    0       0.931730      6.082880     10.153290    -0.042464   -1.312561   -3.405822
            96    0       0.422350      9.806960      4.070980     0.970999    0.122469    1.472843
            97    0       7.947410      4.542000      8.488700    -1.677918   -0.164358    1.298207
            98    0       4.830940      5.744110      5.119190     0.479010    2.318595   -0.543448
            99    0       6.250750      6.190120      1.285970    -0.023807    0.339747   -3.952878
           100    0       4.523010      3.869100      4.042760    -0.441178   -0.687211    1.247560
 Energy
       -398.628543760000
 PlusStress:  xx          yy          zz          yz          xz          xy
       489.02943   457.72159   535.65414    -6.46649    19.26514     7.42252
 Feature   EFS_by	VASP
END_CFG

