<?xml version="1.0" encoding="ISO-8859-1"?>
<modeling>
 <generator>
  <i name="program" type="string">vasp </i>
  <i name="version" type="string">5.4.4.18Apr17-6-g9f103f2a35  </i>
  <i name="subversion" type="string">(build Sep 16 2020 16:20:45) complex            parallel </i>
  <i name="platform" type="string">LinuxIFC </i>
  <i name="date" type="string">2021 08 10 </i>
  <i name="time" type="string">00:45:53 </i>
 </generator>
 <incar>
  <i type="string" name="PREC">normal</i>
  <i type="string" name="ALGO"> Very Fast</i>
  <i type="int" name="ISPIN">     2</i>
  <i type="int" name="NELM">    60</i>
  <i type="int" name="NELMIN">     4</i>
  <i name="EDIFF">      0.00001000</i>
  <i type="int" name="ISYM">     0</i>
  <i type="string" name="LREAL"> auto</i>
  <i type="int" name="ISMEAR">     0</i>
  <i name="SIGMA">      0.05000000</i>
  <i type="logical" name="LWAVE"> F  </i>
  <i type="logical" name="LCHARG"> F  </i>
  <v type="int" name="KPOINT_BSE">    -1     0     0     0</v>
  <i type="int" name="NELM">    60</i>
 </incar>
 <structure name="primitive_cell" >
  <crystal>
   <varray name="basis" >
    <v>      10.21149500       0.00000000       0.00000000 </v>
    <v>       0.00000000      10.21149500       0.00000000 </v>
    <v>       0.00000000       0.00000000      10.21149500 </v>
   </varray>
   <i name="volume">   1064.79986425 </i>
   <varray name="rec_basis" >
    <v>       0.09792885       0.00000000       0.00000000 </v>
    <v>       0.00000000       0.09792885       0.00000000 </v>
    <v>       0.00000000       0.00000000       0.09792885 </v>
   </varray>
  </crystal>
  <varray name="positions" >
   <v>       0.05931660       0.13215700       0.00458000 </v>
   <v>       0.02703620       0.06222740       0.20462700 </v>
   <v>       0.20919900      -0.02974800       0.05037260 </v>
   <v>       0.24966000       0.15282700      -0.12003300 </v>
   <v>      -0.13451200       0.18964000       0.12388000 </v>
   <v>       0.26810200       0.18761900       0.09880350 </v>
   <v>      -0.00610900      -0.09534600      -0.01387400 </v>
   <v>       0.13036300      -0.00501307      -0.17705700 </v>
   <v>      -0.15947700       0.09436560      -0.08328400 </v>
   <v>       0.12635300       0.36332400      -0.01177700 </v>
   <v>      -0.09305600       0.30395900      -0.07470800 </v>
   <v>       0.06238180       0.29660300       0.19527200 </v>
   <v>       0.10981500       0.26395100      -0.22667100 </v>
   <v>      -0.16398000      -0.03033300       0.14418900 </v>
   <v>      -0.06098500      -0.04946600      -0.24398400 </v>
   <v>      -0.11908400       0.22665300      -0.26965800 </v>
   <v>      -0.02939800       0.45900500       0.10008700 </v>
   <v>       0.24385700       0.12015400       0.30504700 </v>
   <v>       0.17386800      -0.19755100      -0.06812500 </v>
   <v>       0.22976700      -0.14326800       0.20415300 </v>
   <v>      -0.30242500       0.25005800       0.00786000 </v>
   <v>      -0.01766550      -0.18127700       0.21337600 </v>
   <v>       0.40041100       0.04509110       0.15979100 </v>
   <v>       0.40082500      -0.05044900      -0.06402100 </v>
   <v>       0.11589600       0.08797730      -0.38676300 </v>
   <v>       0.02947730       0.19881600       0.40017800 </v>
   <v>      -0.17540300       0.09825170       0.33354000 </v>
   <v>       0.37393800       0.38716500      -0.04197300 </v>
   <v>       0.27023700       0.39973400      -0.22613800 </v>
   <v>      -0.00823417       0.48066500      -0.20878900 </v>
   <v>       0.29004400       0.44635800       0.15868900 </v>
   <v>       0.47491000       0.19809600      -0.00220096 </v>
   <v>       0.41850300       0.18806900      -0.21280400 </v>
   <v>       0.30724400      -0.02789460      -0.29933800 </v>
   <v>      -0.24823500      -0.13399400      -0.12353400 </v>
   <v>       0.04136000      -0.03961600       0.39866600 </v>
   <v>      -0.22804300       0.44886500       0.05420280 </v>
   <v>       0.22329500       0.33075500       0.35504000 </v>
   <v>      -0.29900500       0.08393760      -0.24738600 </v>
   <v>      -0.34718000       0.17570900       0.19081400 </v>
   <v>       0.43096500       0.25757000       0.22524200 </v>
   <v>      -0.22171900       0.44479300      -0.16871100 </v>
   <v>      -0.37951500      -0.00546864       0.00145000 </v>
   <v>       0.27417000       0.20779400      -0.39575600 </v>
   <v>       0.09124310      -0.40431100      -0.00570000 </v>
   <v>       0.07646920       0.34166700      -0.41334500 </v>
   <v>      -0.02110900      -0.28251800      -0.19839200 </v>
   <v>      -0.10637600       0.06580750      -0.43073600 </v>
   <v>      -0.08847300      -0.31483800       0.01634120 </v>
   <v>       0.15142000      -0.17731300      -0.33910700 </v>
   <v>      -0.21362400       0.42429700       0.26065700 </v>
   <v>       0.01439000       0.44523100       0.36351700 </v>
   <v>       0.29109200      -0.42743100      -0.08915000 </v>
   <v>      -0.33383500      -0.18532000       0.06700770 </v>
   <v>      -0.36295400      -0.04073000       0.23157500 </v>
   <v>       0.23845600      -0.33712800       0.11198800 </v>
   <v>      -0.17687600      -0.15459500       0.35982000 </v>
   <v>      -0.12764900       0.44239500      -0.36195700 </v>
   <v>       0.33727000      -0.24444600      -0.22059400 </v>
   <v>       0.45590400      -0.17678200       0.14297800 </v>
   <v>      -0.40533700       0.28452100      -0.18315800 </v>
   <v>      -0.15887300       0.29681200       0.45473100 </v>
   <v>       0.04380700      -0.38730500       0.24430900 </v>
   <v>      -0.25062500      -0.14418400      -0.35330000 </v>
   <v>       0.11225500      -0.25221000       0.39265700 </v>
   <v>       0.38777200       0.15529500       0.45170800 </v>
   <v>       0.42955700      -0.28366500      -0.01996600 </v>
   <v>      -0.48325500      -0.06191200      -0.25496500 </v>
   <v>      -0.32446600       0.25740400      -0.38798900 </v>
   <v>       0.27842800      -0.04827400       0.49572000 </v>
   <v>      -0.04921600      -0.19293500      -0.45007800 </v>
   <v>       0.18112400      -0.39464900      -0.28794800 </v>
   <v>      -0.43786700       0.39021300       0.11279500 </v>
   <v>       0.24282300      -0.46446700       0.36562500 </v>
   <v>      -0.21598000      -0.32840400       0.22377900 </v>
   <v>       0.35230700      -0.21072400       0.37082400 </v>
   <v>       0.27188800       0.44602000      -0.43574300 </v>
   <v>      -0.36153700       0.25154200       0.39578900 </v>
   <v>       0.46757600       0.33723900      -0.37577500 </v>
   <v>      -0.27525600      -0.34203900      -0.13312200 </v>
   <v>       0.44293300       0.37889700       0.39590300 </v>
   <v>       0.47291300      -0.04139400       0.40543900 </v>
   <v>      -0.47116600       0.09421600      -0.38225100 </v>
   <v>      -0.16966100      -0.33609300      -0.31970400 </v>
   <v>      -0.33257100       0.00095261       0.46685300 </v>
   <v>       0.42199700      -0.45956300      -0.29055900 </v>
   <v>       0.42901700      -0.40049900       0.22554300 </v>
   <v>      -0.45303500      -0.46377200      -0.09214100 </v>
   <v>      -0.37143200       0.48787500      -0.31315100 </v>
   <v>       0.02676880      -0.40449900      -0.44022400 </v>
   <v>      -0.14009600      -0.38297400       0.41014100 </v>
   <v>      -0.38787100      -0.39380900       0.12593400 </v>
   <v>      -0.40181800      -0.48856900       0.32309300 </v>
   <v>      -0.41409900      -0.24514300       0.31870500 </v>
   <v>       0.26291400      -0.31259200      -0.47153200 </v>
   <v>       0.47698800      -0.19830700      -0.42363400 </v>
   <v>      -0.44674300      -0.28039200      -0.23447800 </v>
   <v>      -0.26864200       0.49719100      -0.49666600 </v>
   <v>      -0.32692700      -0.28907000      -0.49266100 </v>
   <v>       0.47308800      -0.43748600      -0.49868400 </v>
  </varray>
 </structure>
 <varray name="primitive_index" >
  <v type="int" >        1 </v>
  <v type="int" >        9 </v>
  <v type="int" >       40 </v>
  <v type="int" >       77 </v>
  <v type="int" >       34 </v>
  <v type="int" >       24 </v>
  <v type="int" >       21 </v>
  <v type="int" >       53 </v>
  <v type="int" >       87 </v>
  <v type="int" >       39 </v>
  <v type="int" >       18 </v>
  <v type="int" >        4 </v>
  <v type="int" >        8 </v>
  <v type="int" >       75 </v>
  <v type="int" >       71 </v>
  <v type="int" >       74 </v>
  <v type="int" >       50 </v>
  <v type="int" >       69 </v>
  <v type="int" >       19 </v>
  <v type="int" >       33 </v>
  <v type="int" >       57 </v>
  <v type="int" >       82 </v>
  <v type="int" >        5 </v>
  <v type="int" >       32 </v>
  <v type="int" >       17 </v>
  <v type="int" >       56 </v>
  <v type="int" >       16 </v>
  <v type="int" >       72 </v>
  <v type="int" >       44 </v>
  <v type="int" >       48 </v>
  <v type="int" >       37 </v>
  <v type="int" >       67 </v>
  <v type="int" >       66 </v>
  <v type="int" >       90 </v>
  <v type="int" >       28 </v>
  <v type="int" >       96 </v>
  <v type="int" >       80 </v>
  <v type="int" >       68 </v>
  <v type="int" >       29 </v>
  <v type="int" >       54 </v>
  <v type="int" >       41 </v>
  <v type="int" >       97 </v>
  <v type="int" >       85 </v>
  <v type="int" >       89 </v>
  <v type="int" >       95 </v>
  <v type="int" >       83 </v>
  <v type="int" >       38 </v>
  <v type="int" >       64 </v>
  <v type="int" >       15 </v>
  <v type="int" >       88 </v>
  <v type="int" >       46 </v>
  <v type="int" >       76 </v>
  <v type="int" >        3 </v>
  <v type="int" >       27 </v>
  <v type="int" >       14 </v>
  <v type="int" >       47 </v>
  <v type="int" >       31 </v>
  <v type="int" >       51 </v>
  <v type="int" >       42 </v>
  <v type="int" >       70 </v>
  <v type="int" >       36 </v>
  <v type="int" >       20 </v>
  <v type="int" >       45 </v>
  <v type="int" >       13 </v>
  <v type="int" >        2 </v>
  <v type="int" >       35 </v>
  <v type="int" >       60 </v>
  <v type="int" >       25 </v>
  <v type="int" >       55 </v>
  <v type="int" >       63 </v>
  <v type="int" >       92 </v>
  <v type="int" >       73 </v>
  <v type="int" >       81 </v>
  <v type="int" >       59 </v>
  <v type="int" >       86 </v>
  <v type="int" >       94 </v>
  <v type="int" >       52 </v>
  <v type="int" >       84 </v>
  <v type="int" >       12 </v>
  <v type="int" >       61 </v>
  <v type="int" >      100 </v>
  <v type="int" >       65 </v>
  <v type="int" >        6 </v>
  <v type="int" >       11 </v>
  <v type="int" >       43 </v>
  <v type="int" >       30 </v>
  <v type="int" >       93 </v>
  <v type="int" >       78 </v>
  <v type="int" >       91 </v>
  <v type="int" >       23 </v>
  <v type="int" >       58 </v>
  <v type="int" >       99 </v>
  <v type="int" >        7 </v>
  <v type="int" >       26 </v>
  <v type="int" >       49 </v>
  <v type="int" >       22 </v>
  <v type="int" >       62 </v>
  <v type="int" >       79 </v>
  <v type="int" >       10 </v>
  <v type="int" >       98 </v>
 </varray>
 <kpoints>
  <generation param="Gamma">
   <v type="int" name="divisions">       1        1        1 </v>
   <v name="usershift">      0.00000000       0.00000000       0.00000000 </v>
   <v name="genvec1">      1.00000000       0.00000000       0.00000000 </v>
   <v name="genvec2">      0.00000000       1.00000000       0.00000000 </v>
   <v name="genvec3">      0.00000000       0.00000000       1.00000000 </v>
   <v name="shift">      0.00000000       0.00000000       0.00000000 </v>
  </generation>
  <varray name="kpointlist" >
   <v>       0.00000000       0.00000000       0.00000000 </v>
  </varray>
  <varray name="weights" >
   <v>       1.00000000 </v>
  </varray>
 </kpoints>
 <parameters>
  <separator name="general" >
   <i type="string" name="SYSTEM">unknown system</i>
   <i type="logical" name="LCOMPAT"> F  </i>
  </separator>
  <separator name="electronic" >
   <i type="string" name="PREC">normal</i>
   <i name="ENMAX">    245.34500000</i>
   <i name="ENAUG">    322.06900000</i>
   <i name="EDIFF">      0.00001000</i>
   <i type="int" name="IALGO">    48</i>
   <i type="int" name="IWAVPR">    10</i>
   <i type="int" name="NBANDS">   304</i>
   <i name="NELECT">    400.00000000</i>
   <i type="int" name="TURBO">     0</i>
   <i type="int" name="IRESTART">     0</i>
   <i type="int" name="NREBOOT">     0</i>
   <i type="int" name="NMIN">     0</i>
   <i name="EREF">      0.00000000</i>
   <separator name="electronic smearing" >
    <i type="int" name="ISMEAR">     0</i>
    <i name="SIGMA">      0.05000000</i>
    <i name="KSPACING">      0.50000000</i>
    <i type="logical" name="KGAMMA"> T  </i>
   </separator>
   <separator name="electronic projectors" >
    <i type="logical" name="LREAL"> T  </i>
    <v name="ROPT">     -0.00050000</v>
    <i type="int" name="LMAXPAW">  -100</i>
    <i type="int" name="LMAXMIX">     2</i>
    <i type="logical" name="NLSPLINE"> F  </i>
   </separator>
   <separator name="electronic startup" >
    <i type="int" name="ISTART">     0</i>
    <i type="int" name="ICHARG">     2</i>
    <i type="int" name="INIWAV">     1</i>
   </separator>
   <separator name="electronic spin" >
    <i type="int" name="ISPIN">     2</i>
    <i type="logical" name="LNONCOLLINEAR"> F  </i>
    <v name="MAGMOM">      1.00000000      1.00000000      1.00000000      1.00000000      1.00000000      1.00000000      1.00000000      1.00000000      1.00000000      1.00000000      1.00000000      1.00000000      1.00000000      1.00000000      1.00000000      1.00000000      1.00000000      1.00000000      1.00000000      1.00000000
      1.00000000      1.00000000      1.00000000      1.00000000      1.00000000      1.00000000      1.00000000      1.00000000      1.00000000      1.00000000      1.00000000      1.00000000      1.00000000      1.00000000      1.00000000      1.00000000      1.00000000      1.00000000      1.00000000      1.00000000
      1.00000000      1.00000000      1.00000000      1.00000000      1.00000000      1.00000000      1.00000000      1.00000000      1.00000000      1.00000000      1.00000000      1.00000000      1.00000000      1.00000000      1.00000000      1.00000000      1.00000000      1.00000000      1.00000000      1.00000000
      1.00000000      1.00000000      1.00000000      1.00000000      1.00000000      1.00000000      1.00000000      1.00000000      1.00000000      1.00000000      1.00000000      1.00000000      1.00000000      1.00000000      1.00000000      1.00000000      1.00000000      1.00000000      1.00000000      1.00000000
      1.00000000      1.00000000      1.00000000      1.00000000      1.00000000      1.00000000      1.00000000      1.00000000      1.00000000      1.00000000      1.00000000      1.00000000      1.00000000      1.00000000      1.00000000      1.00000000      1.00000000      1.00000000      1.00000000      1.00000000
</v>
    <i name="NUPDOWN">     -1.00000000</i>
    <i type="logical" name="LSORBIT"> F  </i>
    <v name="SAXIS">      0.00000000      0.00000000      1.00000000</v>
    <i type="logical" name="LSPIRAL"> F  </i>
    <v name="QSPIRAL">      0.00000000      0.00000000      0.00000000</v>
    <i type="logical" name="LZEROZ"> F  </i>
   </separator>
   <separator name="electronic exchange-correlation" >
    <i type="logical" name="LASPH"> F  </i>
    <i type="logical" name="LMETAGGA"> F  </i>
   </separator>
   <separator name="electronic convergence" >
    <i type="int" name="NELM">    60</i>
    <i type="int" name="NELMDL">   -12</i>
    <i type="int" name="NELMIN">     4</i>
    <i name="ENINI">    245.34500000</i>
    <separator name="electronic convergence detail" >
     <i type="logical" name="LDIAG"> T  </i>
     <i type="logical" name="LSUBROT"> F  </i>
     <i name="WEIMIN">      0.00000000</i>
     <i name="EBREAK">      0.00000001</i>
     <i name="DEPER">      0.30000000</i>
     <i type="int" name="NRMM">     4</i>
     <i name="TIME">      0.40000000</i>
    </separator>
   </separator>
   <separator name="electronic mixer" >
    <i name="AMIX">      0.40000000</i>
    <i name="BMIX">      1.00000000</i>
    <i name="AMIN">      0.10000000</i>
    <i name="AMIX_MAG">      1.60000000</i>
    <i name="BMIX_MAG">      1.00000000</i>
    <separator name="electronic mixer details" >
     <i type="int" name="IMIX">     4</i>
     <i type="logical" name="MIXFIRST"> F  </i>
     <i type="int" name="MAXMIX">   -45</i>
     <i name="WC">    100.00000000</i>
     <i type="int" name="INIMIX">     1</i>
     <i type="int" name="MIXPRE">     1</i>
     <i type="int" name="MREMOVE">     5</i>
    </separator>
   </separator>
   <separator name="electronic dipolcorrection" >
    <i type="logical" name="LDIPOL"> F  </i>
    <i type="logical" name="LMONO"> F  </i>
    <i type="int" name="IDIPOL">     0</i>
    <i name="EPSILON">      1.00000000</i>
    <v name="DIPOL">   -100.00000000   -100.00000000   -100.00000000</v>
    <i name="EFIELD">      0.00000000</i>
   </separator>
  </separator>
  <separator name="grids" >
   <i type="int" name="NGX">    40</i>
   <i type="int" name="NGY">    40</i>
   <i type="int" name="NGZ">    40</i>
   <i type="int" name="NGXF">    80</i>
   <i type="int" name="NGYF">    80</i>
   <i type="int" name="NGZF">    80</i>
   <i type="logical" name="ADDGRID"> F  </i>
  </separator>
  <separator name="ionic" >
   <i type="int" name="NSW">     0</i>
   <i type="int" name="IBRION">    -1</i>
   <i type="int" name="MDALGO">     0</i>
   <i type="int" name="ISIF">     2</i>
   <i name="PSTRESS">      0.00000000</i>
   <i name="EDIFFG">      0.00010000</i>
   <i type="int" name="NFREE">     0</i>
   <i name="POTIM">      0.50000000</i>
   <i name="SMASS">     -3.00000000</i>
   <i name="SCALEE">      1.00000000</i>
  </separator>
  <separator name="ionic md" >
   <i name="TEBEG">      0.00010000</i>
   <i name="TEEND">      0.00010000</i>
   <i type="int" name="NBLOCK">     1</i>
   <i type="int" name="KBLOCK">     1</i>
   <i type="int" name="NPACO">   256</i>
   <i name="APACO">     16.00000000</i>
  </separator>
  <separator name="symmetry" >
   <i type="int" name="ISYM">     0</i>
   <i name="SYMPREC">      0.00001000</i>
  </separator>
  <separator name="dos" >
   <i type="int" name="LORBIT">     0</i>
   <v name="RWIGS">     -1.00000000</v>
   <i type="int" name="NEDOS">   301</i>
   <i name="EMIN">     10.00000000</i>
   <i name="EMAX">    -10.00000000</i>
   <i name="EFERMI">      0.00000000</i>
  </separator>
  <separator name="writing" >
   <i type="int" name="NWRITE">     2</i>
   <i type="logical" name="LWAVE"> F  </i>
   <i type="logical" name="LDOWNSAMPLE"> F  </i>
   <i type="logical" name="LCHARG"> F  </i>
   <i type="logical" name="LPARD"> F  </i>
   <i type="logical" name="LVTOT"> F  </i>
   <i type="logical" name="LVHAR"> F  </i>
   <i type="logical" name="LELF"> F  </i>
   <i type="logical" name="LOPTICS"> F  </i>
   <v name="STM">      0.00000000      0.00000000      0.00000000      0.00000000      0.00000000      0.00000000      0.00000000</v>
  </separator>
  <separator name="performance" >
   <i type="int" name="NPAR">    16</i>
   <i type="int" name="NSIM">     4</i>
   <i type="int" name="NBLK">    -1</i>
   <i type="logical" name="LPLANE"> T  </i>
   <i type="logical" name="LSCALAPACK"> T  </i>
   <i type="logical" name="LSCAAWARE"> F  </i>
   <i type="logical" name="LSCALU"> F  </i>
   <i type="logical" name="LASYNC"> F  </i>
   <i type="logical" name="LORBITALREAL"> F  </i>
  </separator>
  <separator name="miscellaneous" >
   <i type="int" name="IDIOT">     3</i>
   <i type="int" name="ISPECIAL">     0</i>
   <i type="logical" name="LMUSIC"> F  </i>
   <v name="POMASS">     28.08500000</v>
   <v name="DARWINR">      0.00000000</v>
   <v name="DARWINV">      1.00000000</v>
   <i type="logical" name="LCORR"> T  </i>
  </separator>
  <i type="logical" name="GGA_COMPAT"> T  </i>
  <i type="logical" name="LBERRY"> F  </i>
  <i type="int" name="ICORELEVEL">     0</i>
  <i type="logical" name="LDAU"> F  </i>
  <i type="int" name="I_CONSTRAINED_M">     0</i>
  <separator name="electronic exchange-correlation" >
   <i type="string" name="GGA">--</i>
   <i type="int" name="VOSKOWN">     0</i>
   <i type="logical" name="LHFCALC"> F  </i>
   <i type="string" name="PRECFOCK"></i>
   <i type="logical" name="LSYMGRAD"> F  </i>
   <i type="logical" name="LHFONE"> F  </i>
   <i type="logical" name="LRHFCALC"> F  </i>
   <i type="logical" name="LTHOMAS"> F  </i>
   <i type="logical" name="LMODELHF"> F  </i>
   <i name="ENCUT4O">     -1.00000000</i>
   <i type="int" name="EXXOEP">     0</i>
   <i type="int" name="FOURORBIT">     0</i>
   <i name="AEXX">      0.00000000</i>
   <i name="HFALPHA">      0.00000000</i>
   <i name="MCALPHA">      0.00000000</i>
   <i name="ALDAX">      1.00000000</i>
   <i name="AGGAX">      1.00000000</i>
   <i name="ALDAC">      1.00000000</i>
   <i name="AGGAC">      1.00000000</i>
   <i type="int" name="NKREDX">     1</i>
   <i type="int" name="NKREDY">     1</i>
   <i type="int" name="NKREDZ">     1</i>
   <i type="logical" name="SHIFTRED"> F  </i>
   <i type="logical" name="ODDONLY"> F  </i>
   <i type="logical" name="EVENONLY"> F  </i>
   <i type="int" name="LMAXFOCK">     0</i>
   <i type="int" name="NMAXFOCKAE">     0</i>
   <i type="logical" name="LFOCKAEDFT"> F  </i>
   <i name="HFSCREEN">      0.00000000</i>
   <i name="HFSCREENC">      0.00000000</i>
   <i type="int" name="NBANDSGWLOW">     0</i>
  </separator>
  <separator name="vdW DFT" >
   <i type="logical" name="LUSE_VDW"> F  </i>
   <i name="Zab_VDW">     -0.84910000</i>
   <i name="PARAM1">      0.12340000</i>
   <i name="PARAM2">      1.00000000</i>
   <i name="PARAM3">      0.00000000</i>
  </separator>
  <separator name="model GW" >
   <i type="int" name="MODEL_GW">     0</i>
   <i name="MODEL_EPS0">      6.38879919</i>
   <i name="MODEL_ALPHA">      1.00000000</i>
  </separator>
  <separator name="linear response parameters" >
   <i type="logical" name="LEPSILON"> F  </i>
   <i type="logical" name="LRPA"> F  </i>
   <i type="logical" name="LNABLA"> F  </i>
   <i type="logical" name="LVEL"> F  </i>
   <i type="int" name="KINTER">     0</i>
   <i name="CSHIFT">      0.10000000</i>
   <i name="OMEGAMAX">     -1.00000000</i>
   <i name="DEG_THRESHOLD">      0.00200000</i>
   <i name="RTIME">     -0.10000000</i>
   <i name="WPLASMAI">      0.00000000</i>
   <v name="DFIELD">      0.00000000      0.00000000      0.00000000</v>
   <v name="WPLASMA">      0.00000000      0.00000000      0.00000000      0.00000000      0.00000000      0.00000000      0.00000000      0.00000000      0.00000000</v>
  </separator>
  <separator name="orbital magnetization" >
   <i type="logical" name="NUCIND"> F  </i>
   <v name="MAGPOS">      0.00000000      0.00000000      0.00000000</v>
   <i type="logical" name="LNICSALL"> T  </i>
   <i type="logical" name="ORBITALMAG"> F  </i>
   <i type="logical" name="LMAGBLOCH"> F  </i>
   <i type="logical" name="LCHIMAG"> F  </i>
   <i type="logical" name="LGAUGE"> T  </i>
   <i type="int" name="MAGATOM">     0</i>
   <v name="MAGDIPOL">      0.00000000      0.00000000      0.00000000</v>
   <v name="AVECCONST">      0.00000000      0.00000000      0.00000000</v>
  </separator>
  <separator name="response functions" >
   <i type="logical" name="LADDER"> F  </i>
   <i type="logical" name="LRPAFORCE"> F  </i>
   <i type="logical" name="LFXC"> F  </i>
   <i type="logical" name="LHARTREE"> T  </i>
   <i type="int" name="IBSE">     0</i>
   <v type="int" name="KPOINT">    -1     0     0     0</v>
   <i type="logical" name="LTCTE"> F  </i>
   <i type="logical" name="LTETE"> F  </i>
   <i type="logical" name="LTRIPLET"> F  </i>
   <i type="logical" name="LFXCEPS"> F  </i>
   <i type="logical" name="LFXHEG"> F  </i>
   <i type="int" name="NATURALO">     2</i>
   <i type="logical" name="L2ORDER"> F  </i>
   <i type="logical" name="LMP2LT"> F  </i>
   <i type="logical" name="LUSEW"> F  </i>
   <i name="ENCUTGW">     -2.00000000</i>
   <i name="ENCUTGWSOFT">     -2.00000000</i>
   <i name="ENCUTLF">     -1.00000000</i>
   <i type="int" name="LMAXMP2">    -1</i>
   <i name="SCISSOR">      0.00000000</i>
   <i type="int" name="NOMEGA">     0</i>
   <i type="int" name="NOMEGAR">     0</i>
   <i type="int" name="NBANDSGW">    -1</i>
   <i type="int" name="NBANDSO">    -1</i>
   <i type="int" name="NBANDSV">    -1</i>
   <i type="int" name="NELM">    60</i>
   <i type="int" name="NELMHF">     1</i>
   <i type="int" name="DIM">     3</i>
   <i type="int" name="ANTIRES">     0</i>
   <i name="OMEGAMAX">    -30.00000000</i>
   <i name="OMEGAMIN">    -30.00000000</i>
   <i name="OMEGATL">   -200.00000000</i>
   <i type="int" name="OMEGAGRID">   140</i>
   <i name="CSHIFT">     -0.10000000</i>
   <i type="logical" name="SELFENERGY"> F  </i>
   <i type="logical" name="LSPECTRAL"> F  </i>
   <i type="logical" name="LSPECTRALGW"> F  </i>
   <i type="logical" name="LSINGLES"> F  </i>
   <i type="logical" name="LFERMIGW"> F  </i>
   <i type="logical" name="ODDONLYGW"> F  </i>
   <i type="logical" name="EVENONLYGW"> F  </i>
   <i type="int" name="NKREDLFX">     1</i>
   <i type="int" name="NKREDLFY">     1</i>
   <i type="int" name="NKREDLFZ">     1</i>
   <i type="int" name="MAXMEM">  2800</i>
   <i type="int" name="TELESCOPE">     0</i>
   <i type="int" name="TAUPAR">     1</i>
   <i type="int" name="OMEGAPAR">    -1</i>
   <i name="LAMBDA">      1.00000000</i>
  </separator>
  <separator name="External order field" >
   <i name="OFIELD_KAPPA">      0.00000000</i>
   <v name="OFIELD_K">      0.00000000      0.00000000      0.00000000</v>
   <i name="OFIELD_Q6_NEAR">      0.00000000</i>
   <i name="OFIELD_Q6_FAR">      0.00000000</i>
   <i name="OFIELD_A">      0.00000000</i>
  </separator>
 </parameters>
 <atominfo>
  <atoms>     100 </atoms>
  <types>       1 </types>
  <array name="atoms" >
   <dimension dim="1">ion</dimension>
   <field type="string">element</field>
   <field type="int">atomtype</field>
   <set>
    <rc><c>Si</c><c>   1</c></rc>
    <rc><c>Si</c><c>   1</c></rc>
    <rc><c>Si</c><c>   1</c></rc>
    <rc><c>Si</c><c>   1</c></rc>
    <rc><c>Si</c><c>   1</c></rc>
    <rc><c>Si</c><c>   1</c></rc>
    <rc><c>Si</c><c>   1</c></rc>
    <rc><c>Si</c><c>   1</c></rc>
    <rc><c>Si</c><c>   1</c></rc>
    <rc><c>Si</c><c>   1</c></rc>
    <rc><c>Si</c><c>   1</c></rc>
    <rc><c>Si</c><c>   1</c></rc>
    <rc><c>Si</c><c>   1</c></rc>
    <rc><c>Si</c><c>   1</c></rc>
    <rc><c>Si</c><c>   1</c></rc>
    <rc><c>Si</c><c>   1</c></rc>
    <rc><c>Si</c><c>   1</c></rc>
    <rc><c>Si</c><c>   1</c></rc>
    <rc><c>Si</c><c>   1</c></rc>
    <rc><c>Si</c><c>   1</c></rc>
    <rc><c>Si</c><c>   1</c></rc>
    <rc><c>Si</c><c>   1</c></rc>
    <rc><c>Si</c><c>   1</c></rc>
    <rc><c>Si</c><c>   1</c></rc>
    <rc><c>Si</c><c>   1</c></rc>
    <rc><c>Si</c><c>   1</c></rc>
    <rc><c>Si</c><c>   1</c></rc>
    <rc><c>Si</c><c>   1</c></rc>
    <rc><c>Si</c><c>   1</c></rc>
    <rc><c>Si</c><c>   1</c></rc>
    <rc><c>Si</c><c>   1</c></rc>
    <rc><c>Si</c><c>   1</c></rc>
    <rc><c>Si</c><c>   1</c></rc>
    <rc><c>Si</c><c>   1</c></rc>
    <rc><c>Si</c><c>   1</c></rc>
    <rc><c>Si</c><c>   1</c></rc>
    <rc><c>Si</c><c>   1</c></rc>
    <rc><c>Si</c><c>   1</c></rc>
    <rc><c>Si</c><c>   1</c></rc>
    <rc><c>Si</c><c>   1</c></rc>
    <rc><c>Si</c><c>   1</c></rc>
    <rc><c>Si</c><c>   1</c></rc>
    <rc><c>Si</c><c>   1</c></rc>
    <rc><c>Si</c><c>   1</c></rc>
    <rc><c>Si</c><c>   1</c></rc>
    <rc><c>Si</c><c>   1</c></rc>
    <rc><c>Si</c><c>   1</c></rc>
    <rc><c>Si</c><c>   1</c></rc>
    <rc><c>Si</c><c>   1</c></rc>
    <rc><c>Si</c><c>   1</c></rc>
    <rc><c>Si</c><c>   1</c></rc>
    <rc><c>Si</c><c>   1</c></rc>
    <rc><c>Si</c><c>   1</c></rc>
    <rc><c>Si</c><c>   1</c></rc>
    <rc><c>Si</c><c>   1</c></rc>
    <rc><c>Si</c><c>   1</c></rc>
    <rc><c>Si</c><c>   1</c></rc>
    <rc><c>Si</c><c>   1</c></rc>
    <rc><c>Si</c><c>   1</c></rc>
    <rc><c>Si</c><c>   1</c></rc>
    <rc><c>Si</c><c>   1</c></rc>
    <rc><c>Si</c><c>   1</c></rc>
    <rc><c>Si</c><c>   1</c></rc>
    <rc><c>Si</c><c>   1</c></rc>
    <rc><c>Si</c><c>   1</c></rc>
    <rc><c>Si</c><c>   1</c></rc>
    <rc><c>Si</c><c>   1</c></rc>
    <rc><c>Si</c><c>   1</c></rc>
    <rc><c>Si</c><c>   1</c></rc>
    <rc><c>Si</c><c>   1</c></rc>
    <rc><c>Si</c><c>   1</c></rc>
    <rc><c>Si</c><c>   1</c></rc>
    <rc><c>Si</c><c>   1</c></rc>
    <rc><c>Si</c><c>   1</c></rc>
    <rc><c>Si</c><c>   1</c></rc>
    <rc><c>Si</c><c>   1</c></rc>
    <rc><c>Si</c><c>   1</c></rc>
    <rc><c>Si</c><c>   1</c></rc>
    <rc><c>Si</c><c>   1</c></rc>
    <rc><c>Si</c><c>   1</c></rc>
    <rc><c>Si</c><c>   1</c></rc>
    <rc><c>Si</c><c>   1</c></rc>
    <rc><c>Si</c><c>   1</c></rc>
    <rc><c>Si</c><c>   1</c></rc>
    <rc><c>Si</c><c>   1</c></rc>
    <rc><c>Si</c><c>   1</c></rc>
    <rc><c>Si</c><c>   1</c></rc>
    <rc><c>Si</c><c>   1</c></rc>
    <rc><c>Si</c><c>   1</c></rc>
    <rc><c>Si</c><c>   1</c></rc>
    <rc><c>Si</c><c>   1</c></rc>
    <rc><c>Si</c><c>   1</c></rc>
    <rc><c>Si</c><c>   1</c></rc>
    <rc><c>Si</c><c>   1</c></rc>
    <rc><c>Si</c><c>   1</c></rc>
    <rc><c>Si</c><c>   1</c></rc>
    <rc><c>Si</c><c>   1</c></rc>
    <rc><c>Si</c><c>   1</c></rc>
    <rc><c>Si</c><c>   1</c></rc>
    <rc><c>Si</c><c>   1</c></rc>
   </set>
  </array>
  <array name="atomtypes" >
   <dimension dim="1">type</dimension>
   <field type="int">atomspertype</field>
   <field type="string">element</field>
   <field>mass</field>
   <field>valence</field>
   <field type="string">pseudopotential</field>
   <set>
    <rc><c> 100</c><c>Si</c><c>     28.08500000</c><c>      4.00000000</c><c>  PAW_PBE Si 05Jan2001                  </c></rc>
   </set>
  </array>
 </atominfo>
 <structure name="initialpos" >
  <crystal>
   <varray name="basis" >
    <v>      10.21149500       0.00000000       0.00000000 </v>
    <v>       0.00000000      10.21149500       0.00000000 </v>
    <v>       0.00000000       0.00000000      10.21149500 </v>
   </varray>
   <i name="volume">   1064.79986425 </i>
   <varray name="rec_basis" >
    <v>       0.09792885       0.00000000       0.00000000 </v>
    <v>       0.00000000       0.09792885       0.00000000 </v>
    <v>       0.00000000       0.00000000       0.09792885 </v>
   </varray>
  </crystal>
  <varray name="positions" >
   <v>       0.05931660       0.13215700       0.00458000 </v>
   <v>       0.11225500       0.74779000       0.39265700 </v>
   <v>       0.29109200       0.57256900       0.91085000 </v>
   <v>       0.06238180       0.29660300       0.19527200 </v>
   <v>       0.40041100       0.04509110       0.15979100 </v>
   <v>       0.52883400       0.09421600       0.61774900 </v>
   <v>       0.59818200       0.51143100       0.32309300 </v>
   <v>       0.10981500       0.26395100       0.77332900 </v>
   <v>       0.02703620       0.06222740       0.20462700 </v>
   <v>       0.67307300       0.71093000       0.50733900 </v>
   <v>       0.83033900       0.66390700       0.68029600 </v>
   <v>       0.46757600       0.33723900       0.62422500 </v>
   <v>       0.74937500       0.85581600       0.64670000 </v>
   <v>       0.63704600       0.95927000       0.23157500 </v>
   <v>       0.91152700       0.68516200       0.01634120 </v>
   <v>       0.82459700       0.09825170       0.33354000 </v>
   <v>       0.11589600       0.08797730       0.61323700 </v>
   <v>       0.90694400       0.30395900       0.92529200 </v>
   <v>       0.17386800       0.80244900       0.93187500 </v>
   <v>       0.84112700       0.29681200       0.45473100 </v>
   <v>       0.99389100       0.90465400       0.98612600 </v>
   <v>       0.47698800       0.80169300       0.57636600 </v>
   <v>       0.02676880       0.59550100       0.55977600 </v>
   <v>       0.26810200       0.18761900       0.09880350 </v>
   <v>       0.51674500       0.93808800       0.74503500 </v>
   <v>       0.58590100       0.75485700       0.31870500 </v>
   <v>       0.66616500       0.81468000       0.06700770 </v>
   <v>       0.75176500       0.86600600       0.87646600 </v>
   <v>       0.70099500       0.08393760       0.75261400 </v>
   <v>       0.42199700       0.54043700       0.70944100 </v>
   <v>       0.82312400       0.84540500       0.35982000 </v>
   <v>       0.40082500       0.94955100       0.93597900 </v>
   <v>       0.22976700       0.85673200       0.20415300 </v>
   <v>       0.86548800       0.18964000       0.12388000 </v>
   <v>       0.38777200       0.15529500       0.45170800 </v>
   <v>       0.59466300       0.28452100       0.81684200 </v>
   <v>       0.29004400       0.44635800       0.15868900 </v>
   <v>       0.97889100       0.71748200       0.80160800 </v>
   <v>       0.12635300       0.36332400       0.98822300 </v>
   <v>       0.20919900       0.97025200       0.05037260 </v>
   <v>       0.43096500       0.25757000       0.22524200 </v>
   <v>       0.33727000       0.75555400       0.77940600 </v>
   <v>       0.66742900       0.00095261       0.46685300 </v>
   <v>       0.27023700       0.39973400       0.77386200 </v>
   <v>       0.04380700       0.61269500       0.24430900 </v>
   <v>       0.78637600       0.42429700       0.26065700 </v>
   <v>       0.23845600       0.66287200       0.11198800 </v>
   <v>       0.99176583       0.48066500       0.79121100 </v>
   <v>       0.26291400       0.68740800       0.52846800 </v>
   <v>       0.97060200       0.45900500       0.10008700 </v>
   <v>       0.87235100       0.44239500       0.63804300 </v>
   <v>       0.27188800       0.44602000       0.56425700 </v>
   <v>       0.13036300       0.99498693       0.82294300 </v>
   <v>       0.65282000       0.17570900       0.19081400 </v>
   <v>       0.67553400       0.25740400       0.61201100 </v>
   <v>       0.02947730       0.19881600       0.40017800 </v>
   <v>       0.69757500       0.25005800       0.00786000 </v>
   <v>       0.85990400       0.61702600       0.41014100 </v>
   <v>       0.24282300       0.53553300       0.36562500 </v>
   <v>       0.42955700       0.71633500       0.98003400 </v>
   <v>       0.72474400       0.65796100       0.86687800 </v>
   <v>       0.55325700       0.71960800       0.76552200 </v>
   <v>       0.27842800       0.95172600       0.49572000 </v>
   <v>       0.89362400       0.06580750       0.56926400 </v>
   <v>       0.47291300       0.95860600       0.40543900 </v>
   <v>       0.41850300       0.18806900       0.78719600 </v>
   <v>       0.47491000       0.19809600       0.99779904 </v>
   <v>       0.22329500       0.33075500       0.35504000 </v>
   <v>       0.24385700       0.12015400       0.30504700 </v>
   <v>       0.45590400       0.82321800       0.14297800 </v>
   <v>       0.93901500       0.95053400       0.75601600 </v>
   <v>       0.37393800       0.38716500       0.95802700 </v>
   <v>       0.18112400       0.60535100       0.71205200 </v>
   <v>       0.88091600       0.22665300       0.73034200 </v>
   <v>       0.83602000       0.96966700       0.14418900 </v>
   <v>       0.01439000       0.44523100       0.36351700 </v>
   <v>       0.24966000       0.15282700       0.87996700 </v>
   <v>       0.54696500       0.53622800       0.90785900 </v>
   <v>       0.73135800       0.49719100       0.50333400 </v>
   <v>       0.77195700       0.44886500       0.05420280 </v>
   <v>       0.56213300       0.39021300       0.11279500 </v>
   <v>       0.98233450       0.81872300       0.21337600 </v>
   <v>       0.07646920       0.34166700       0.58665500 </v>
   <v>       0.63846300       0.25154200       0.39578900 </v>
   <v>       0.62048500       0.99453136       0.00145000 </v>
   <v>       0.78402000       0.67159600       0.22377900 </v>
   <v>       0.84052300       0.09436560       0.91671600 </v>
   <v>       0.15142000       0.82268700       0.66089300 </v>
   <v>       0.27417000       0.20779400       0.60424400 </v>
   <v>       0.30724400       0.97210540       0.70066200 </v>
   <v>       0.62856800       0.48787500       0.68684900 </v>
   <v>       0.95078400       0.80706500       0.54992200 </v>
   <v>       0.42901700       0.59950100       0.22554300 </v>
   <v>       0.35230700       0.78927600       0.37082400 </v>
   <v>       0.09124310       0.59568900       0.99430000 </v>
   <v>       0.04136000       0.96038400       0.39866600 </v>
   <v>       0.77828100       0.44479300       0.83128900 </v>
   <v>       0.47308800       0.56251400       0.50131600 </v>
   <v>       0.61212900       0.60619100       0.12593400 </v>
   <v>       0.44293300       0.37889700       0.39590300 </v>
  </varray>
 </structure>
 <calculation>
  <scstep>
   <time name="diag">    0.35    0.35</time>
   <time name="diis">    0.44    0.44</time>
   <time name="orth">    0.10    0.10</time>
   <time name="total">    0.98    1.12</time>
   <energy>
    <i name="alphaZ">    316.14514549 </i>
    <i name="ewald"> -14855.54467936 </i>
    <i name="hartreedc">   -114.18577364 </i>
    <i name="XCdc">   -776.80569763 </i>
    <i name="pawpsdc">   8803.41707833 </i>
    <i name="pawaedc">  -7043.47671478 </i>
    <i name="eentropy">     -0.00623598 </i>
    <i name="bandstr">   4777.82277791 </i>
    <i name="atom">  10306.12861560 </i>
    <i name="e_fr_energy">   1413.49451594 </i>
    <i name="e_wo_entrp">   1413.50075192 </i>
    <i name="e_0_energy">   1413.49763393 </i>
   </energy>
  </scstep>
  <scstep>
   <time name="diag">    0.34    0.34</time>
   <time name="diis">    0.45    0.45</time>
   <time name="orth">    0.10    0.10</time>
   <time name="total">    0.89    0.90</time>
   <energy>
    <i name="e_fr_energy">     27.44249420 </i>
    <i name="e_wo_entrp">     27.48906736 </i>
    <i name="e_0_energy">     27.46578078 </i>
   </energy>
  </scstep>
  <scstep>
   <time name="diag">    0.34    0.34</time>
   <time name="diis">    0.44    0.45</time>
   <time name="orth">    0.10    0.10</time>
   <time name="total">    0.88    0.89</time>
   <energy>
    <i name="e_fr_energy">   -264.22013337 </i>
    <i name="e_wo_entrp">   -264.17648535 </i>
    <i name="e_0_energy">   -264.19830936 </i>
   </energy>
  </scstep>
  <scstep>
   <time name="diag">    0.34    0.34</time>
   <time name="diis">    0.44    0.45</time>
   <time name="orth">    0.10    0.10</time>
   <time name="total">    0.88    0.88</time>
   <energy>
    <i name="e_fr_energy">   -345.22765668 </i>
    <i name="e_wo_entrp">   -345.17302347 </i>
    <i name="e_0_energy">   -345.20034008 </i>
   </energy>
  </scstep>
  <scstep>
   <time name="diag">    0.34    0.34</time>
   <time name="diis">    0.44    0.45</time>
   <time name="orth">    0.10    0.10</time>
   <time name="total">    0.88    0.88</time>
   <energy>
    <i name="e_fr_energy">   -371.70918875 </i>
    <i name="e_wo_entrp">   -371.66849679 </i>
    <i name="e_0_energy">   -371.68884277 </i>
   </energy>
  </scstep>
  <scstep>
   <time name="diag">    0.34    0.34</time>
   <time name="diis">    0.44    0.45</time>
   <time name="orth">    0.10    0.10</time>
   <time name="total">    0.88    0.89</time>
   <energy>
    <i name="e_fr_energy">   -381.14845260 </i>
    <i name="e_wo_entrp">   -381.09555107 </i>
    <i name="e_0_energy">   -381.12200184 </i>
   </energy>
  </scstep>
  <scstep>
   <time name="diag">    0.34    0.34</time>
   <time name="diis">    0.44    0.45</time>
   <time name="orth">    0.10    0.10</time>
   <time name="total">    0.88    0.89</time>
   <energy>
    <i name="e_fr_energy">   -384.57175255 </i>
    <i name="e_wo_entrp">   -384.52552542 </i>
    <i name="e_0_energy">   -384.54863898 </i>
   </energy>
  </scstep>
  <scstep>
   <time name="diag">    0.34    0.34</time>
   <time name="diis">    0.44    0.45</time>
   <time name="orth">    0.10    0.10</time>
   <time name="total">    0.88    0.89</time>
   <energy>
    <i name="e_fr_energy">   -385.95414076 </i>
    <i name="e_wo_entrp">   -385.90735370 </i>
    <i name="e_0_energy">   -385.93074723 </i>
   </energy>
  </scstep>
  <scstep>
   <time name="diag">    0.34    0.34</time>
   <time name="diis">    0.99    1.00</time>
   <time name="orth">    0.10    0.10</time>
   <time name="total">    1.42    1.44</time>
   <energy>
    <i name="e_fr_energy">   -386.77819388 </i>
    <i name="e_wo_entrp">   -386.72985919 </i>
    <i name="e_0_energy">   -386.75402654 </i>
   </energy>
  </scstep>
  <scstep>
   <time name="diag">    0.34    0.34</time>
   <time name="diis">    0.96    0.98</time>
   <time name="orth">    0.10    0.10</time>
   <time name="total">    1.40    1.42</time>
   <energy>
    <i name="e_fr_energy">   -386.87644552 </i>
    <i name="e_wo_entrp">   -386.82832770 </i>
    <i name="e_0_energy">   -386.85238661 </i>
   </energy>
  </scstep>
  <scstep>
   <time name="diag">    0.34    0.34</time>
   <time name="diis">    0.92    0.93</time>
   <time name="orth">    0.10    0.10</time>
   <time name="total">    1.35    1.37</time>
   <energy>
    <i name="e_fr_energy">   -386.87827174 </i>
    <i name="e_wo_entrp">   -386.83016378 </i>
    <i name="e_0_energy">   -386.85421776 </i>
   </energy>
  </scstep>
  <scstep>
   <time name="diag">    0.34    0.34</time>
   <time name="diis">    0.78    0.79</time>
   <time name="orth">    0.10    0.10</time>
   <time name="total">    1.26    1.28</time>
   <energy>
    <i name="e_fr_energy">   -386.87828697 </i>
    <i name="e_wo_entrp">   -386.83017900 </i>
    <i name="e_0_energy">   -386.85423299 </i>
   </energy>
  </scstep>
  <scstep>
   <time name="diag">    0.34    0.34</time>
   <time name="diis">    0.90    0.91</time>
   <time name="orth">    0.10    0.10</time>
   <time name="total">    1.47    1.48</time>
   <energy>
    <i name="e_fr_energy">   -390.29493955 </i>
    <i name="e_wo_entrp">   -390.25096611 </i>
    <i name="e_0_energy">   -390.27295283 </i>
   </energy>
  </scstep>
  <scstep>
   <time name="diag">    0.34    0.34</time>
   <time name="diis">    0.90    0.91</time>
   <time name="orth">    0.10    0.10</time>
   <time name="total">    1.47    1.49</time>
   <energy>
    <i name="e_fr_energy">   -397.59427172 </i>
    <i name="e_wo_entrp">   -397.54830184 </i>
    <i name="e_0_energy">   -397.57128678 </i>
   </energy>
  </scstep>
  <scstep>
   <time name="diag">    0.34    0.34</time>
   <time name="diis">    0.94    0.95</time>
   <time name="orth">    0.10    0.10</time>
   <time name="total">    1.51    1.52</time>
   <energy>
    <i name="e_fr_energy">   -398.32154907 </i>
    <i name="e_wo_entrp">   -398.27321484 </i>
    <i name="e_0_energy">   -398.29738195 </i>
   </energy>
  </scstep>
  <scstep>
   <time name="diag">    0.34    0.34</time>
   <time name="diis">    0.92    0.93</time>
   <time name="orth">    0.10    0.10</time>
   <time name="total">    1.49    1.51</time>
   <energy>
    <i name="e_fr_energy">   -398.48489774 </i>
    <i name="e_wo_entrp">   -398.44182448 </i>
    <i name="e_0_energy">   -398.46336111 </i>
   </energy>
  </scstep>
  <scstep>
   <time name="diag">    0.34    0.34</time>
   <time name="diis">    0.94    0.96</time>
   <time name="orth">    0.10    0.10</time>
   <time name="total">    1.51    1.53</time>
   <energy>
    <i name="e_fr_energy">   -398.57255144 </i>
    <i name="e_wo_entrp">   -398.53364299 </i>
    <i name="e_0_energy">   -398.55309721 </i>
   </energy>
  </scstep>
  <scstep>
   <time name="diag">    0.34    0.34</time>
   <time name="diis">    0.92    0.93</time>
   <time name="orth">    0.10    0.10</time>
   <time name="total">    1.49    1.51</time>
   <energy>
    <i name="e_fr_energy">   -398.61601747 </i>
    <i name="e_wo_entrp">   -398.57454054 </i>
    <i name="e_0_energy">   -398.59527900 </i>
   </energy>
  </scstep>
  <scstep>
   <time name="diag">    0.34    0.34</time>
   <time name="diis">    0.95    0.96</time>
   <time name="orth">    0.10    0.10</time>
   <time name="total">    1.52    1.53</time>
   <energy>
    <i name="e_fr_energy">   -398.62476756 </i>
    <i name="e_wo_entrp">   -398.57764438 </i>
    <i name="e_0_energy">   -398.60120597 </i>
   </energy>
  </scstep>
  <scstep>
   <time name="diag">    0.34    0.34</time>
   <time name="diis">    0.95    0.96</time>
   <time name="orth">    0.10    0.10</time>
   <time name="total">    1.52    1.53</time>
   <energy>
    <i name="e_fr_energy">   -398.62695900 </i>
    <i name="e_wo_entrp">   -398.57622842 </i>
    <i name="e_0_energy">   -398.60159371 </i>
   </energy>
  </scstep>
  <scstep>
   <time name="diag">    0.34    0.34</time>
   <time name="diis">    0.94    0.95</time>
   <time name="orth">    0.10    0.10</time>
   <time name="total">    1.51    1.52</time>
   <energy>
    <i name="e_fr_energy">   -398.62781638 </i>
    <i name="e_wo_entrp">   -398.57550253 </i>
    <i name="e_0_energy">   -398.60165945 </i>
   </energy>
  </scstep>
  <scstep>
   <time name="diag">    0.34    0.34</time>
   <time name="diis">    0.93    0.95</time>
   <time name="orth">    0.10    0.10</time>
   <time name="total">    1.50    1.52</time>
   <energy>
    <i name="e_fr_energy">   -398.62821449 </i>
    <i name="e_wo_entrp">   -398.57498020 </i>
    <i name="e_0_energy">   -398.60159734 </i>
   </energy>
  </scstep>
  <scstep>
   <time name="diag">    0.34    0.34</time>
   <time name="diis">    0.93    0.94</time>
   <time name="orth">    0.10    0.10</time>
   <time name="total">    1.50    1.52</time>
   <energy>
    <i name="e_fr_energy">   -398.62842190 </i>
    <i name="e_wo_entrp">   -398.57482429 </i>
    <i name="e_0_energy">   -398.60162310 </i>
   </energy>
  </scstep>
  <scstep>
   <time name="diag">    0.34    0.34</time>
   <time name="diis">    0.92    0.94</time>
   <time name="orth">    0.10    0.10</time>
   <time name="total">    1.49    1.51</time>
   <energy>
    <i name="e_fr_energy">   -398.62851385 </i>
    <i name="e_wo_entrp">   -398.57464792 </i>
    <i name="e_0_energy">   -398.60158089 </i>
   </energy>
  </scstep>
  <scstep>
   <time name="diag">    0.34    0.34</time>
   <time name="diis">    0.96    0.98</time>
   <time name="orth">    0.10    0.10</time>
   <time name="total">    1.53    1.55</time>
   <energy>
    <i name="e_fr_energy">   -398.62853920 </i>
    <i name="e_wo_entrp">   -398.57466550 </i>
    <i name="e_0_energy">   -398.60160235 </i>
   </energy>
  </scstep>
  <scstep>
   <time name="diag">    0.33    0.34</time>
   <time name="diis">    0.74    0.75</time>
   <time name="orth">    0.10    0.10</time>
   <time name="total">    1.26    1.27</time>
   <energy>
    <i name="alphaZ">    316.14514549 </i>
    <i name="ewald"> -14855.54467936 </i>
    <i name="hartreedc">   -164.19992968 </i>
    <i name="XCdc">   -766.92895629 </i>
    <i name="pawpsdc">  92490.85268148 </i>
    <i name="pawaedc"> -90748.43294550 </i>
    <i name="eentropy">     -0.05389333 </i>
    <i name="bandstr">   3023.40541783 </i>
    <i name="atom">  10306.12861560 </i>
    <i name="e_fr_energy">   -398.62854376 </i>
    <i name="e_wo_entrp">   -398.57465043 </i>
    <i name="e_0_energy">   -398.60159710 </i>
   </energy>
  </scstep>
  <structure>
   <crystal>
    <varray name="basis" >
     <v>      10.21149500       0.00000000       0.00000000 </v>
     <v>       0.00000000      10.21149500       0.00000000 </v>
     <v>       0.00000000       0.00000000      10.21149500 </v>
    </varray>
    <i name="volume">   1064.79986425 </i>
    <varray name="rec_basis" >
     <v>       0.09792885       0.00000000       0.00000000 </v>
     <v>       0.00000000       0.09792885       0.00000000 </v>
     <v>       0.00000000       0.00000000       0.09792885 </v>
    </varray>
   </crystal>
   <varray name="positions" >
    <v>       0.05931660       0.13215700       0.00458000 </v>
    <v>       0.11225500       0.74779000       0.39265700 </v>
    <v>       0.29109200       0.57256900       0.91085000 </v>
    <v>       0.06238180       0.29660300       0.19527200 </v>
    <v>       0.40041100       0.04509110       0.15979100 </v>
    <v>       0.52883400       0.09421600       0.61774900 </v>
    <v>       0.59818200       0.51143100       0.32309300 </v>
    <v>       0.10981500       0.26395100       0.77332900 </v>
    <v>       0.02703620       0.06222740       0.20462700 </v>
    <v>       0.67307300       0.71093000       0.50733900 </v>
    <v>       0.83033900       0.66390700       0.68029600 </v>
    <v>       0.46757600       0.33723900       0.62422500 </v>
    <v>       0.74937500       0.85581600       0.64670000 </v>
    <v>       0.63704600       0.95927000       0.23157500 </v>
    <v>       0.91152700       0.68516200       0.01634120 </v>
    <v>       0.82459700       0.09825170       0.33354000 </v>
    <v>       0.11589600       0.08797730       0.61323700 </v>
    <v>       0.90694400       0.30395900       0.92529200 </v>
    <v>       0.17386800       0.80244900       0.93187500 </v>
    <v>       0.84112700       0.29681200       0.45473100 </v>
    <v>       0.99389100       0.90465400       0.98612600 </v>
    <v>       0.47698800       0.80169300       0.57636600 </v>
    <v>       0.02676880       0.59550100       0.55977600 </v>
    <v>       0.26810200       0.18761900       0.09880350 </v>
    <v>       0.51674500       0.93808800       0.74503500 </v>
    <v>       0.58590100       0.75485700       0.31870500 </v>
    <v>       0.66616500       0.81468000       0.06700770 </v>
    <v>       0.75176500       0.86600600       0.87646600 </v>
    <v>       0.70099500       0.08393760       0.75261400 </v>
    <v>       0.42199700       0.54043700       0.70944100 </v>
    <v>       0.82312400       0.84540500       0.35982000 </v>
    <v>       0.40082500       0.94955100       0.93597900 </v>
    <v>       0.22976700       0.85673200       0.20415300 </v>
    <v>       0.86548800       0.18964000       0.12388000 </v>
    <v>       0.38777200       0.15529500       0.45170800 </v>
    <v>       0.59466300       0.28452100       0.81684200 </v>
    <v>       0.29004400       0.44635800       0.15868900 </v>
    <v>       0.97889100       0.71748200       0.80160800 </v>
    <v>       0.12635300       0.36332400       0.98822300 </v>
    <v>       0.20919900       0.97025200       0.05037260 </v>
    <v>       0.43096500       0.25757000       0.22524200 </v>
    <v>       0.33727000       0.75555400       0.77940600 </v>
    <v>       0.66742900       0.00095261       0.46685300 </v>
    <v>       0.27023700       0.39973400       0.77386200 </v>
    <v>       0.04380700       0.61269500       0.24430900 </v>
    <v>       0.78637600       0.42429700       0.26065700 </v>
    <v>       0.23845600       0.66287200       0.11198800 </v>
    <v>       0.99176583       0.48066500       0.79121100 </v>
    <v>       0.26291400       0.68740800       0.52846800 </v>
    <v>       0.97060200       0.45900500       0.10008700 </v>
    <v>       0.87235100       0.44239500       0.63804300 </v>
    <v>       0.27188800       0.44602000       0.56425700 </v>
    <v>       0.13036300       0.99498693       0.82294300 </v>
    <v>       0.65282000       0.17570900       0.19081400 </v>
    <v>       0.67553400       0.25740400       0.61201100 </v>
    <v>       0.02947730       0.19881600       0.40017800 </v>
    <v>       0.69757500       0.25005800       0.00786000 </v>
    <v>       0.85990400       0.61702600       0.41014100 </v>
    <v>       0.24282300       0.53553300       0.36562500 </v>
    <v>       0.42955700       0.71633500       0.98003400 </v>
    <v>       0.72474400       0.65796100       0.86687800 </v>
    <v>       0.55325700       0.71960800       0.76552200 </v>
    <v>       0.27842800       0.95172600       0.49572000 </v>
    <v>       0.89362400       0.06580750       0.56926400 </v>
    <v>       0.47291300       0.95860600       0.40543900 </v>
    <v>       0.41850300       0.18806900       0.78719600 </v>
    <v>       0.47491000       0.19809600       0.99779904 </v>
    <v>       0.22329500       0.33075500       0.35504000 </v>
    <v>       0.24385700       0.12015400       0.30504700 </v>
    <v>       0.45590400       0.82321800       0.14297800 </v>
    <v>       0.93901500       0.95053400       0.75601600 </v>
    <v>       0.37393800       0.38716500       0.95802700 </v>
    <v>       0.18112400       0.60535100       0.71205200 </v>
    <v>       0.88091600       0.22665300       0.73034200 </v>
    <v>       0.83602000       0.96966700       0.14418900 </v>
    <v>       0.01439000       0.44523100       0.36351700 </v>
    <v>       0.24966000       0.15282700       0.87996700 </v>
    <v>       0.54696500       0.53622800       0.90785900 </v>
    <v>       0.73135800       0.49719100       0.50333400 </v>
    <v>       0.77195700       0.44886500       0.05420280 </v>
    <v>       0.56213300       0.39021300       0.11279500 </v>
    <v>       0.98233450       0.81872300       0.21337600 </v>
    <v>       0.07646920       0.34166700       0.58665500 </v>
    <v>       0.63846300       0.25154200       0.39578900 </v>
    <v>       0.62048500       0.99453136       0.00145000 </v>
    <v>       0.78402000       0.67159600       0.22377900 </v>
    <v>       0.84052300       0.09436560       0.91671600 </v>
    <v>       0.15142000       0.82268700       0.66089300 </v>
    <v>       0.27417000       0.20779400       0.60424400 </v>
    <v>       0.30724400       0.97210540       0.70066200 </v>
    <v>       0.62856800       0.48787500       0.68684900 </v>
    <v>       0.95078400       0.80706500       0.54992200 </v>
    <v>       0.42901700       0.59950100       0.22554300 </v>
    <v>       0.35230700       0.78927600       0.37082400 </v>
    <v>       0.09124310       0.59568900       0.99430000 </v>
    <v>       0.04136000       0.96038400       0.39866600 </v>
    <v>       0.77828100       0.44479300       0.83128900 </v>
    <v>       0.47308800       0.56251400       0.50131600 </v>
    <v>       0.61212900       0.60619100       0.12593400 </v>
    <v>       0.44293300       0.37889700       0.39590300 </v>
   </varray>
  </structure>
  <varray name="forces" >
   <v>      -1.18651895       1.18659586      -1.71085230 </v>
   <v>      -0.08759368       1.44748912       0.08244529 </v>
   <v>      -1.10379207       0.40123320      -0.58627585 </v>
   <v>       1.23965425      -1.58672447       0.67289533 </v>
   <v>       3.64963975      -3.62803918       1.64069121 </v>
   <v>      -0.83132843       1.26938986      -2.83012287 </v>
   <v>       0.84273379      -0.27103940       0.73983318 </v>
   <v>      -3.56495602      -1.25011308       2.32886926 </v>
   <v>       2.67061565      -0.86258168       1.32030995 </v>
   <v>      -0.61559660      -0.24496897       0.61762649 </v>
   <v>      -1.62098858      -3.07942896      -2.82517733 </v>
   <v>      -0.02755699      -0.63259401      -0.62819409 </v>
   <v>      -1.21794782       3.73184021      -0.51214249 </v>
   <v>      -1.88818199       0.50393422       1.66533872 </v>
   <v>      -4.36306009       1.26886271       1.49849907 </v>
   <v>      -0.12395757      -0.13763774       1.16036234 </v>
   <v>      -4.01109529      -2.63812235      -1.16905453 </v>
   <v>       2.73693273       0.37374343       2.22898639 </v>
   <v>       1.03645943      -2.68851735      -1.84465397 </v>
   <v>       1.17117160       0.76741937       0.39192108 </v>
   <v>      -2.92066380       0.15447423       0.91112757 </v>
   <v>      -0.75002376      -0.37291280      -1.11421536 </v>
   <v>       0.45758315      -1.04374967      -0.74271379 </v>
   <v>      -3.39388341       3.95626017      -0.89162473 </v>
   <v>       2.03700852      -1.42025544       3.43007935 </v>
   <v>      -0.46149903       0.03480157      -0.08359296 </v>
   <v>       2.29427705      -4.94870581       1.10132422 </v>
   <v>       1.25505179       2.44973587      -1.27953800 </v>
   <v>      -0.03967319      -1.29942657       0.35280341 </v>
   <v>       0.13837039       1.73127335       1.33162104 </v>
   <v>      -1.66636778       0.97989666       1.62950357 </v>
   <v>       0.62042634       0.09973512      -0.51236992 </v>
   <v>      -0.79858532      -1.56227152       5.02415780 </v>
   <v>       1.12974181       2.12275834       1.28871735 </v>
   <v>       4.08674322       0.66279775      -2.33492907 </v>
   <v>       2.25902341       2.71454277       0.99586221 </v>
   <v>      -1.15955786      -1.91548838      -0.81755129 </v>
   <v>       3.57100454       1.11164926       2.41717234 </v>
   <v>       1.88970168      -0.22055309      -1.03135482 </v>
   <v>      -0.40646780       4.53826463      -2.36973285 </v>
   <v>       0.45117345      -0.77128185       0.46979795 </v>
   <v>       0.22547775       1.19328738      -0.73185272 </v>
   <v>       2.97174858       0.11036576       1.23489429 </v>
   <v>      -0.77513726      -1.18404440       0.27917098 </v>
   <v>       0.71202601      -0.35252061      -2.02649697 </v>
   <v>       1.42816292      -1.66387820       2.76817461 </v>
   <v>       2.27674475       0.60158120       3.39676905 </v>
   <v>       4.50904979       1.57488938       3.54452472 </v>
   <v>       1.87983582      -1.35804534       1.98189064 </v>
   <v>      -1.00838531       0.49241557       1.42066672 </v>
   <v>       0.31178202      -2.56650168      -3.19863061 </v>
   <v>      -0.66461995      -0.03509981      -1.65191465 </v>
   <v>      -0.39769065      -0.49569316       0.05608753 </v>
   <v>      -2.08980488      -0.80906975       2.14986421 </v>
   <v>       1.66364504       0.84830242      -0.14787236 </v>
   <v>       1.36105600      -0.37484618       0.60531720 </v>
   <v>      -0.98050905      -0.29225418      -4.08628983 </v>
   <v>       3.60220099       1.69074730      -0.85624292 </v>
   <v>       0.05608352       3.35771262      -1.37909598 </v>
   <v>       1.04004045      -1.15703734      -2.55238503 </v>
   <v>       2.06981805      -1.59703562       3.39147373 </v>
   <v>       0.33445242       0.06044898      -0.11100167 </v>
   <v>      -3.21553417       0.90763342      -1.83245310 </v>
   <v>      -1.12580563      -0.33297130      -1.08657803 </v>
   <v>       1.09060904       0.65909455      -2.16156105 </v>
   <v>       0.83799003      -0.90120782      -2.09305030 </v>
   <v>       0.76180084      -1.61099103       0.82774304 </v>
   <v>      -0.57413092      -2.03565901       0.39215231 </v>
   <v>      -2.87678602      -2.94015624      -0.02700166 </v>
   <v>      -0.37041388       2.30380101       3.60820246 </v>
   <v>      -1.65518888      -0.38088928      -0.71807728 </v>
   <v>       1.52675762      -1.56616763       1.48299126 </v>
   <v>      -1.10009669      -1.49408185       2.28158932 </v>
   <v>       0.46640933      -0.93132995      -1.98361211 </v>
   <v>      -0.87192007      -0.97826236      -2.40758320 </v>
   <v>      -0.85304009      -1.50487975       1.65142039 </v>
   <v>      -0.08806279      -0.31383806       2.97283893 </v>
   <v>      -0.27479172      -1.67957530       1.13185582 </v>
   <v>      -3.96816901      -2.40422542      -1.90592423 </v>
   <v>      -1.89847449       2.63599324      -2.22938685 </v>
   <v>      -1.17656266       0.92600222      -0.36734426 </v>
   <v>       1.86608375       0.66772305      -1.69454043 </v>
   <v>      -1.44639121       1.35106653      -3.11479461 </v>
   <v>      -1.82884895      -0.04336306      -0.96390652 </v>
   <v>      -1.72046708       5.49646755      -2.43005952 </v>
   <v>       1.52237672       0.21165434      -2.47434937 </v>
   <v>       0.46485221      -2.29591123       0.26284917 </v>
   <v>      -2.68840325       0.91537073       0.66836073 </v>
   <v>       0.71031338       3.15972971       2.31940817 </v>
   <v>       1.32103544       1.46911054       1.58594352 </v>
   <v>      -0.47554757       0.32583554      -0.04153084 </v>
   <v>      -0.02448599       1.60442242       0.19418151 </v>
   <v>      -2.55529332       1.15878723       1.10492784 </v>
   <v>       1.13155005      -1.97187366      -3.17207361 </v>
   <v>      -0.04246437      -1.31256091      -3.40582153 </v>
   <v>       0.97099911       0.12246902       1.47284284 </v>
   <v>      -1.67791823      -0.16435758       1.29820713 </v>
   <v>       0.47901030       2.31859510      -0.54344800 </v>
   <v>      -0.02380679       0.33974696      -3.95287823 </v>
   <v>      -0.44117759      -0.68721144       1.24756044 </v>
  </varray>
  <varray name="stress" >
   <v>     735.83017281      11.16847827      28.98776076 </v>
   <v>      11.16847830     688.72205167      -9.72996828 </v>
   <v>      28.98776075      -9.72996845     805.98518173 </v>
  </varray>
  <energy>
   <i name="e_fr_energy">   -398.62854376 </i>
   <i name="e_wo_entrp">   -398.60159710 </i>
   <i name="e_0_energy">     -0.05389333 </i>
  </energy>
  <time name="totalsc">   35.38   36.02</time>
  <eigenvalues>
   <array>
    <dimension dim="1">band</dimension>
    <dimension dim="2">kpoint</dimension>
    <dimension dim="3">spin</dimension>
    <field>eigene</field>
    <field>occ</field>
    <set>
     <set comment="spin 1">
      <set comment="kpoint 1">
       <r>   -3.1416    1.0000 </r>
       <r>   -2.1062    1.0000 </r>
       <r>   -1.9617    1.0000 </r>
       <r>   -1.8015    1.0000 </r>
       <r>   -1.7016    1.0000 </r>
       <r>   -1.5365    1.0000 </r>
       <r>   -1.5093    1.0000 </r>
       <r>   -0.9861    1.0000 </r>
       <r>   -0.7262    1.0000 </r>
       <r>   -0.6820    1.0000 </r>
       <r>   -0.4979    1.0000 </r>
       <r>   -0.4691    1.0000 </r>
       <r>   -0.4280    1.0000 </r>
       <r>   -0.3071    1.0000 </r>
       <r>   -0.2743    1.0000 </r>
       <r>   -0.2233    1.0000 </r>
       <r>    0.0586    1.0000 </r>
       <r>    0.1128    1.0000 </r>
       <r>    0.1339    1.0000 </r>
       <r>    0.7311    1.0000 </r>
       <r>    0.7769    1.0000 </r>
       <r>    0.8583    1.0000 </r>
       <r>    0.9100    1.0000 </r>
       <r>    1.0241    1.0000 </r>
       <r>    1.1074    1.0000 </r>
       <r>    1.2828    1.0000 </r>
       <r>    1.3164    1.0000 </r>
       <r>    2.1417    1.0000 </r>
       <r>    2.2027    1.0000 </r>
       <r>    2.2438    1.0000 </r>
       <r>    2.3238    1.0000 </r>
       <r>    2.4979    1.0000 </r>
       <r>    2.5732    1.0000 </r>
       <r>    3.0167    1.0000 </r>
       <r>    3.1572    1.0000 </r>
       <r>    3.2179    1.0000 </r>
       <r>    3.2585    1.0000 </r>
       <r>    3.3155    1.0000 </r>
       <r>    3.3775    1.0000 </r>
       <r>    3.4182    1.0000 </r>
       <r>    3.4671    1.0000 </r>
       <r>    3.5631    1.0000 </r>
       <r>    3.5828    1.0000 </r>
       <r>    3.6474    1.0000 </r>
       <r>    3.7071    1.0000 </r>
       <r>    3.7424    1.0000 </r>
       <r>    3.7588    1.0000 </r>
       <r>    3.8191    1.0000 </r>
       <r>    3.8676    1.0000 </r>
       <r>    3.9063    1.0000 </r>
       <r>    3.9424    1.0000 </r>
       <r>    4.0528    1.0000 </r>
       <r>    4.0789    1.0000 </r>
       <r>    4.1654    1.0000 </r>
       <r>    4.1852    1.0000 </r>
       <r>    4.2539    1.0000 </r>
       <r>    4.3494    1.0000 </r>
       <r>    4.4938    1.0000 </r>
       <r>    4.6298    1.0000 </r>
       <r>    4.6526    1.0000 </r>
       <r>    4.7336    1.0000 </r>
       <r>    4.8507    1.0000 </r>
       <r>    4.8613    1.0000 </r>
       <r>    4.9216    1.0000 </r>
       <r>    4.9709    1.0000 </r>
       <r>    4.9854    1.0000 </r>
       <r>    5.0487    1.0000 </r>
       <r>    5.1389    1.0000 </r>
       <r>    5.1868    1.0000 </r>
       <r>    5.2207    1.0000 </r>
       <r>    5.2863    1.0000 </r>
       <r>    5.3438    1.0000 </r>
       <r>    5.3676    1.0000 </r>
       <r>    5.4108    1.0000 </r>
       <r>    5.4444    1.0000 </r>
       <r>    5.5638    1.0000 </r>
       <r>    5.5888    1.0000 </r>
       <r>    5.6266    1.0000 </r>
       <r>    5.7018    1.0000 </r>
       <r>    5.7653    1.0000 </r>
       <r>    5.9031    1.0000 </r>
       <r>    7.1610    1.0000 </r>
       <r>    7.2222    1.0000 </r>
       <r>    7.2696    1.0000 </r>
       <r>    7.4347    1.0000 </r>
       <r>    7.4942    1.0000 </r>
       <r>    7.5224    1.0000 </r>
       <r>    7.5434    1.0000 </r>
       <r>    7.6580    1.0000 </r>
       <r>    7.7244    1.0000 </r>
       <r>    7.7743    1.0000 </r>
       <r>    7.8137    1.0000 </r>
       <r>    7.9184    1.0000 </r>
       <r>    8.1292    1.0000 </r>
       <r>    8.1996    1.0000 </r>
       <r>    8.2879    1.0000 </r>
       <r>    8.3471    1.0000 </r>
       <r>    8.4236    1.0000 </r>
       <r>    8.4851    1.0000 </r>
       <r>    8.5587    1.0000 </r>
       <r>    8.6361    1.0000 </r>
       <r>    8.6853    1.0000 </r>
       <r>    8.7066    1.0000 </r>
       <r>    8.7860    1.0000 </r>
       <r>    8.8234    1.0000 </r>
       <r>    8.8647    1.0000 </r>
       <r>    8.9106    1.0000 </r>
       <r>    8.9946    1.0000 </r>
       <r>    9.0109    1.0000 </r>
       <r>    9.0443    1.0000 </r>
       <r>    9.1028    1.0000 </r>
       <r>    9.1797    1.0000 </r>
       <r>    9.2232    1.0000 </r>
       <r>    9.2556    1.0000 </r>
       <r>    9.2712    1.0000 </r>
       <r>    9.3434    1.0000 </r>
       <r>    9.4024    1.0000 </r>
       <r>    9.4503    1.0000 </r>
       <r>    9.4610    1.0000 </r>
       <r>    9.5740    1.0000 </r>
       <r>    9.6275    1.0000 </r>
       <r>    9.6955    1.0000 </r>
       <r>    9.7347    1.0000 </r>
       <r>    9.8129    1.0000 </r>
       <r>    9.9025    1.0000 </r>
       <r>    9.9230    1.0000 </r>
       <r>   10.0393    1.0000 </r>
       <r>   10.0675    1.0000 </r>
       <r>   10.1027    1.0000 </r>
       <r>   10.1929    1.0000 </r>
       <r>   10.2466    1.0000 </r>
       <r>   10.2648    1.0000 </r>
       <r>   10.2919    1.0000 </r>
       <r>   10.3511    1.0000 </r>
       <r>   10.4112    1.0000 </r>
       <r>   10.4664    1.0000 </r>
       <r>   10.5278    1.0000 </r>
       <r>   10.6025    1.0000 </r>
       <r>   10.6230    1.0000 </r>
       <r>   10.6461    1.0000 </r>
       <r>   10.7088    1.0000 </r>
       <r>   10.7694    1.0000 </r>
       <r>   10.7923    1.0000 </r>
       <r>   10.8251    1.0000 </r>
       <r>   10.8677    1.0000 </r>
       <r>   10.9388    1.0000 </r>
       <r>   10.9588    1.0000 </r>
       <r>   11.0514    1.0000 </r>
       <r>   11.2494    1.0000 </r>
       <r>   11.3543    1.0000 </r>
       <r>   11.4143    1.0000 </r>
       <r>   11.4707    1.0000 </r>
       <r>   11.5244    1.0000 </r>
       <r>   11.5360    1.0000 </r>
       <r>   11.5983    1.0000 </r>
       <r>   11.6053    1.0000 </r>
       <r>   11.6863    1.0000 </r>
       <r>   11.7163    1.0000 </r>
       <r>   11.7482    1.0000 </r>
       <r>   11.8135    1.0000 </r>
       <r>   11.8707    1.0000 </r>
       <r>   11.8844    1.0000 </r>
       <r>   11.9366    1.0000 </r>
       <r>   12.0159    1.0000 </r>
       <r>   12.0877    1.0000 </r>
       <r>   12.1092    1.0000 </r>
       <r>   12.2045    1.0000 </r>
       <r>   12.2144    1.0000 </r>
       <r>   12.2892    1.0000 </r>
       <r>   12.3514    1.0000 </r>
       <r>   12.3898    1.0000 </r>
       <r>   12.6305    1.0000 </r>
       <r>   12.8326    1.0000 </r>
       <r>   12.9536    1.0000 </r>
       <r>   13.1001    1.0000 </r>
       <r>   13.2545    1.0000 </r>
       <r>   13.3018    1.0000 </r>
       <r>   13.3148    1.0000 </r>
       <r>   13.4055    1.0000 </r>
       <r>   13.4876    1.0000 </r>
       <r>   13.5727    1.0000 </r>
       <r>   13.6828    1.0000 </r>
       <r>   13.6951    1.0000 </r>
       <r>   13.7988    1.0000 </r>
       <r>   13.8542    1.0000 </r>
       <r>   13.9105    1.0000 </r>
       <r>   13.9492    1.0000 </r>
       <r>   14.0480    1.0000 </r>
       <r>   14.0826    1.0000 </r>
       <r>   14.1399    1.0000 </r>
       <r>   14.1735    1.0000 </r>
       <r>   14.2514    1.0000 </r>
       <r>   14.2650    1.0000 </r>
       <r>   14.3149    1.0000 </r>
       <r>   14.3522    1.0000 </r>
       <r>   14.3874    1.0000 </r>
       <r>   14.4850    1.0000 </r>
       <r>   14.5001    1.0000 </r>
       <r>   14.5817    0.9821 </r>
       <r>   14.6339    0.7332 </r>
       <r>   14.6774    0.2719 </r>
       <r>   14.7289    0.0194 </r>
       <r>   14.7542    0.0027 </r>
       <r>   14.7922    0.0001 </r>
       <r>   14.8171    0.0000 </r>
       <r>   14.8795    0.0000 </r>
       <r>   14.9316    0.0000 </r>
       <r>   14.9692    0.0000 </r>
       <r>   15.0408    0.0000 </r>
       <r>   15.1057    0.0000 </r>
       <r>   15.1410    0.0000 </r>
       <r>   15.2043    0.0000 </r>
       <r>   15.2266    0.0000 </r>
       <r>   15.2769    0.0000 </r>
       <r>   15.3000    0.0000 </r>
       <r>   15.3642    0.0000 </r>
       <r>   15.3841    0.0000 </r>
       <r>   15.4219    0.0000 </r>
       <r>   15.4342    0.0000 </r>
       <r>   15.4842    0.0000 </r>
       <r>   15.5331    0.0000 </r>
       <r>   15.5691    0.0000 </r>
       <r>   15.6300    0.0000 </r>
       <r>   15.6901    0.0000 </r>
       <r>   15.7429    0.0000 </r>
       <r>   15.7866    0.0000 </r>
       <r>   15.8320    0.0000 </r>
       <r>   15.8587    0.0000 </r>
       <r>   15.8972    0.0000 </r>
       <r>   15.9319    0.0000 </r>
       <r>   15.9943    0.0000 </r>
       <r>   16.0458    0.0000 </r>
       <r>   16.0787    0.0000 </r>
       <r>   16.1395    0.0000 </r>
       <r>   16.1589    0.0000 </r>
       <r>   16.2086    0.0000 </r>
       <r>   16.2259    0.0000 </r>
       <r>   16.2876    0.0000 </r>
       <r>   16.3411    0.0000 </r>
       <r>   16.4009    0.0000 </r>
       <r>   16.4670    0.0000 </r>
       <r>   16.5299    0.0000 </r>
       <r>   16.5565    0.0000 </r>
       <r>   16.6531    0.0000 </r>
       <r>   16.6948    0.0000 </r>
       <r>   16.7251    0.0000 </r>
       <r>   16.7670    0.0000 </r>
       <r>   16.8110    0.0000 </r>
       <r>   16.8862    0.0000 </r>
       <r>   16.9157    0.0000 </r>
       <r>   17.1441    0.0000 </r>
       <r>   17.8164    0.0000 </r>
       <r>   17.8870    0.0000 </r>
       <r>   18.0055    0.0000 </r>
       <r>   18.0403    0.0000 </r>
       <r>   18.2415    0.0000 </r>
       <r>   18.2835    0.0000 </r>
       <r>   18.4046    0.0000 </r>
       <r>   18.4745    0.0000 </r>
       <r>   18.5007    0.0000 </r>
       <r>   18.5256    0.0000 </r>
       <r>   18.5620    0.0000 </r>
       <r>   18.6883    0.0000 </r>
       <r>   18.7122    0.0000 </r>
       <r>   18.7449    0.0000 </r>
       <r>   18.7555    0.0000 </r>
       <r>   18.8190    0.0000 </r>
       <r>   18.8879    0.0000 </r>
       <r>   18.8984    0.0000 </r>
       <r>   18.9101    0.0000 </r>
       <r>   18.9512    0.0000 </r>
       <r>   18.9947    0.0000 </r>
       <r>   19.0491    0.0000 </r>
       <r>   19.0794    0.0000 </r>
       <r>   19.0881    0.0000 </r>
       <r>   19.1234    0.0000 </r>
       <r>   19.1847    0.0000 </r>
       <r>   19.2007    0.0000 </r>
       <r>   19.2650    0.0000 </r>
       <r>   19.2734    0.0000 </r>
       <r>   19.3092    0.0000 </r>
       <r>   19.3755    0.0000 </r>
       <r>   19.4008    0.0000 </r>
       <r>   19.4594    0.0000 </r>
       <r>   19.4808    0.0000 </r>
       <r>   19.5108    0.0000 </r>
       <r>   19.5287    0.0000 </r>
       <r>   19.5747    0.0000 </r>
       <r>   19.6110    0.0000 </r>
       <r>   19.6316    0.0000 </r>
       <r>   19.6723    0.0000 </r>
       <r>   19.7410    0.0000 </r>
       <r>   19.7886    0.0000 </r>
       <r>   19.8113    0.0000 </r>
       <r>   19.9033    0.0000 </r>
       <r>   19.9165    0.0000 </r>
       <r>   19.9344    0.0000 </r>
       <r>   19.9508    0.0000 </r>
       <r>   20.0843    0.0000 </r>
       <r>   20.1063    0.0000 </r>
       <r>   20.1537    0.0000 </r>
       <r>   20.1792    0.0000 </r>
       <r>   20.2813    0.0000 </r>
       <r>   20.3331    0.0000 </r>
      </set>
     </set>
     <set comment="spin 2">
      <set comment="kpoint 1">
       <r>   -3.1413    1.0000 </r>
       <r>   -2.1059    1.0000 </r>
       <r>   -1.9615    1.0000 </r>
       <r>   -1.8012    1.0000 </r>
       <r>   -1.7013    1.0000 </r>
       <r>   -1.5361    1.0000 </r>
       <r>   -1.5091    1.0000 </r>
       <r>   -0.9858    1.0000 </r>
       <r>   -0.7259    1.0000 </r>
       <r>   -0.6817    1.0000 </r>
       <r>   -0.4977    1.0000 </r>
       <r>   -0.4688    1.0000 </r>
       <r>   -0.4277    1.0000 </r>
       <r>   -0.3069    1.0000 </r>
       <r>   -0.2740    1.0000 </r>
       <r>   -0.2230    1.0000 </r>
       <r>    0.0588    1.0000 </r>
       <r>    0.1131    1.0000 </r>
       <r>    0.1343    1.0000 </r>
       <r>    0.7315    1.0000 </r>
       <r>    0.7772    1.0000 </r>
       <r>    0.8586    1.0000 </r>
       <r>    0.9104    1.0000 </r>
       <r>    1.0243    1.0000 </r>
       <r>    1.1077    1.0000 </r>
       <r>    1.2832    1.0000 </r>
       <r>    1.3167    1.0000 </r>
       <r>    2.1420    1.0000 </r>
       <r>    2.2029    1.0000 </r>
       <r>    2.2441    1.0000 </r>
       <r>    2.3241    1.0000 </r>
       <r>    2.4982    1.0000 </r>
       <r>    2.5735    1.0000 </r>
       <r>    3.0171    1.0000 </r>
       <r>    3.1574    1.0000 </r>
       <r>    3.2182    1.0000 </r>
       <r>    3.2587    1.0000 </r>
       <r>    3.3158    1.0000 </r>
       <r>    3.3778    1.0000 </r>
       <r>    3.4184    1.0000 </r>
       <r>    3.4674    1.0000 </r>
       <r>    3.5634    1.0000 </r>
       <r>    3.5832    1.0000 </r>
       <r>    3.6477    1.0000 </r>
       <r>    3.7075    1.0000 </r>
       <r>    3.7428    1.0000 </r>
       <r>    3.7591    1.0000 </r>
       <r>    3.8194    1.0000 </r>
       <r>    3.8679    1.0000 </r>
       <r>    3.9066    1.0000 </r>
       <r>    3.9427    1.0000 </r>
       <r>    4.0531    1.0000 </r>
       <r>    4.0792    1.0000 </r>
       <r>    4.1657    1.0000 </r>
       <r>    4.1855    1.0000 </r>
       <r>    4.2542    1.0000 </r>
       <r>    4.3497    1.0000 </r>
       <r>    4.4941    1.0000 </r>
       <r>    4.6300    1.0000 </r>
       <r>    4.6529    1.0000 </r>
       <r>    4.7339    1.0000 </r>
       <r>    4.8510    1.0000 </r>
       <r>    4.8616    1.0000 </r>
       <r>    4.9220    1.0000 </r>
       <r>    4.9712    1.0000 </r>
       <r>    4.9857    1.0000 </r>
       <r>    5.0490    1.0000 </r>
       <r>    5.1392    1.0000 </r>
       <r>    5.1871    1.0000 </r>
       <r>    5.2210    1.0000 </r>
       <r>    5.2866    1.0000 </r>
       <r>    5.3441    1.0000 </r>
       <r>    5.3679    1.0000 </r>
       <r>    5.4111    1.0000 </r>
       <r>    5.4448    1.0000 </r>
       <r>    5.5642    1.0000 </r>
       <r>    5.5891    1.0000 </r>
       <r>    5.6270    1.0000 </r>
       <r>    5.7021    1.0000 </r>
       <r>    5.7656    1.0000 </r>
       <r>    5.9034    1.0000 </r>
       <r>    7.1612    1.0000 </r>
       <r>    7.2225    1.0000 </r>
       <r>    7.2699    1.0000 </r>
       <r>    7.4350    1.0000 </r>
       <r>    7.4945    1.0000 </r>
       <r>    7.5227    1.0000 </r>
       <r>    7.5437    1.0000 </r>
       <r>    7.6582    1.0000 </r>
       <r>    7.7247    1.0000 </r>
       <r>    7.7746    1.0000 </r>
       <r>    7.8140    1.0000 </r>
       <r>    7.9188    1.0000 </r>
       <r>    8.1295    1.0000 </r>
       <r>    8.1999    1.0000 </r>
       <r>    8.2882    1.0000 </r>
       <r>    8.3474    1.0000 </r>
       <r>    8.4239    1.0000 </r>
       <r>    8.4854    1.0000 </r>
       <r>    8.5589    1.0000 </r>
       <r>    8.6364    1.0000 </r>
       <r>    8.6856    1.0000 </r>
       <r>    8.7068    1.0000 </r>
       <r>    8.7864    1.0000 </r>
       <r>    8.8237    1.0000 </r>
       <r>    8.8650    1.0000 </r>
       <r>    8.9109    1.0000 </r>
       <r>    8.9949    1.0000 </r>
       <r>    9.0112    1.0000 </r>
       <r>    9.0446    1.0000 </r>
       <r>    9.1031    1.0000 </r>
       <r>    9.1800    1.0000 </r>
       <r>    9.2235    1.0000 </r>
       <r>    9.2559    1.0000 </r>
       <r>    9.2715    1.0000 </r>
       <r>    9.3436    1.0000 </r>
       <r>    9.4027    1.0000 </r>
       <r>    9.4506    1.0000 </r>
       <r>    9.4614    1.0000 </r>
       <r>    9.5743    1.0000 </r>
       <r>    9.6278    1.0000 </r>
       <r>    9.6958    1.0000 </r>
       <r>    9.7350    1.0000 </r>
       <r>    9.8132    1.0000 </r>
       <r>    9.9027    1.0000 </r>
       <r>    9.9233    1.0000 </r>
       <r>   10.0396    1.0000 </r>
       <r>   10.0678    1.0000 </r>
       <r>   10.1030    1.0000 </r>
       <r>   10.1932    1.0000 </r>
       <r>   10.2468    1.0000 </r>
       <r>   10.2651    1.0000 </r>
       <r>   10.2921    1.0000 </r>
       <r>   10.3514    1.0000 </r>
       <r>   10.4115    1.0000 </r>
       <r>   10.4667    1.0000 </r>
       <r>   10.5281    1.0000 </r>
       <r>   10.6029    1.0000 </r>
       <r>   10.6234    1.0000 </r>
       <r>   10.6463    1.0000 </r>
       <r>   10.7091    1.0000 </r>
       <r>   10.7698    1.0000 </r>
       <r>   10.7925    1.0000 </r>
       <r>   10.8254    1.0000 </r>
       <r>   10.8681    1.0000 </r>
       <r>   10.9391    1.0000 </r>
       <r>   10.9591    1.0000 </r>
       <r>   11.0517    1.0000 </r>
       <r>   11.2496    1.0000 </r>
       <r>   11.3547    1.0000 </r>
       <r>   11.4146    1.0000 </r>
       <r>   11.4709    1.0000 </r>
       <r>   11.5247    1.0000 </r>
       <r>   11.5363    1.0000 </r>
       <r>   11.5986    1.0000 </r>
       <r>   11.6056    1.0000 </r>
       <r>   11.6866    1.0000 </r>
       <r>   11.7166    1.0000 </r>
       <r>   11.7485    1.0000 </r>
       <r>   11.8138    1.0000 </r>
       <r>   11.8710    1.0000 </r>
       <r>   11.8848    1.0000 </r>
       <r>   11.9369    1.0000 </r>
       <r>   12.0162    1.0000 </r>
       <r>   12.0880    1.0000 </r>
       <r>   12.1095    1.0000 </r>
       <r>   12.2049    1.0000 </r>
       <r>   12.2148    1.0000 </r>
       <r>   12.2895    1.0000 </r>
       <r>   12.3517    1.0000 </r>
       <r>   12.3901    1.0000 </r>
       <r>   12.6308    1.0000 </r>
       <r>   12.8329    1.0000 </r>
       <r>   12.9538    1.0000 </r>
       <r>   13.1004    1.0000 </r>
       <r>   13.2547    1.0000 </r>
       <r>   13.3021    1.0000 </r>
       <r>   13.3150    1.0000 </r>
       <r>   13.4058    1.0000 </r>
       <r>   13.4879    1.0000 </r>
       <r>   13.5729    1.0000 </r>
       <r>   13.6831    1.0000 </r>
       <r>   13.6954    1.0000 </r>
       <r>   13.7990    1.0000 </r>
       <r>   13.8545    1.0000 </r>
       <r>   13.9108    1.0000 </r>
       <r>   13.9495    1.0000 </r>
       <r>   14.0483    1.0000 </r>
       <r>   14.0829    1.0000 </r>
       <r>   14.1402    1.0000 </r>
       <r>   14.1738    1.0000 </r>
       <r>   14.2518    1.0000 </r>
       <r>   14.2653    1.0000 </r>
       <r>   14.3151    1.0000 </r>
       <r>   14.3525    1.0000 </r>
       <r>   14.3877    1.0000 </r>
       <r>   14.4853    1.0000 </r>
       <r>   14.5003    1.0000 </r>
       <r>   14.5820    0.9817 </r>
       <r>   14.6352    0.7210 </r>
       <r>   14.6780    0.2662 </r>
       <r>   14.7292    0.0191 </r>
       <r>   14.7545    0.0026 </r>
       <r>   14.7925    0.0001 </r>
       <r>   14.8173    0.0000 </r>
       <r>   14.8798    0.0000 </r>
       <r>   14.9319    0.0000 </r>
[...]
       <r>    -1.2141     0.0000     7.0000 </r>
       <r>    -1.1279     0.0003     7.0000 </r>
       <r>    -1.0417     0.6574     7.0567 </r>
       <r>    -0.9555     8.6662     7.8036 </r>
       <r>    -0.8694     2.2732     7.9995 </r>
       <r>    -0.7832     0.6389     8.0546 </r>
       <r>    -0.6970    12.4271     9.1257 </r>
       <r>    -0.6108     9.8855     9.9777 </r>
       <r>    -0.5246     3.5481    10.2835 </r>
       <r>    -0.4384    21.5264    12.1388 </r>
       <r>    -0.3522    11.1138    13.0967 </r>
       <r>    -0.2660    17.1803    14.5774 </r>
       <r>    -0.1799    15.1710    15.8850 </r>
       <r>    -0.0937     1.3335    15.9999 </r>
       <r>    -0.0075     0.3574    16.0307 </r>
       <r>     0.0787    10.5093    16.9365 </r>
       <r>     0.1649    20.8563    18.7340 </r>
       <r>     0.2511     3.0800    18.9995 </r>
       <r>     0.3373     0.0061    19.0000 </r>
       <r>     0.4235     0.0000    19.0000 </r>
       <r>     0.5096     0.0000    19.0000 </r>
       <r>     0.5958     0.0007    19.0001 </r>
       <r>     0.6820     0.9797    19.0845 </r>
       <r>     0.7682    13.5933    20.2561 </r>
       <r>     0.8544    14.3680    21.4944 </r>
       <r>     0.9406    15.1752    22.8023 </r>
       <r>     1.0268     8.5418    23.5385 </r>
       <r>     1.1130    11.7735    24.5533 </r>
       <r>     1.1991     5.2334    25.0043 </r>
       <r>     1.2853     8.2052    25.7115 </r>
       <r>     1.3715    14.1744    26.9332 </r>
       <r>     1.4577     0.7750    27.0000 </r>
       <r>     1.5439     0.0004    27.0000 </r>
       <r>     1.6301     0.0000    27.0000 </r>
       <r>     1.7163     0.0000    27.0000 </r>
       <r>     1.8025     0.0000    27.0000 </r>
       <r>     1.8887     0.0000    27.0000 </r>
       <r>     1.9748     0.0000    27.0000 </r>
       <r>     2.0610     0.1283    27.0111 </r>
       <r>     2.1472     7.0603    27.6196 </r>
       <r>     2.2334    18.1876    29.1871 </r>
       <r>     2.3196    14.4499    30.4325 </r>
       <r>     2.4058     6.5152    30.9941 </r>
       <r>     2.4920     5.1850    31.4409 </r>
       <r>     2.5782    12.7558    32.5403 </r>
       <r>     2.6643     5.2741    32.9949 </r>
       <r>     2.7505     0.0592    33.0000 </r>
       <r>     2.8367     0.0000    33.0000 </r>
       <r>     2.9229     0.0448    33.0039 </r>
       <r>     3.0091     4.7197    33.4106 </r>
       <r>     3.0953     7.1422    34.0262 </r>
       <r>     3.1815    10.3197    34.9156 </r>
       <r>     3.2677    19.6078    36.6056 </r>
       <r>     3.3538    17.7931    38.1391 </r>
       <r>     3.4400    20.5507    39.9104 </r>
       <r>     3.5262    14.4011    41.1516 </r>
       <r>     3.6124    20.0089    42.8761 </r>
       <r>     3.6986    18.5533    44.4752 </r>
       <r>     3.7848    27.0638    46.8077 </r>
       <r>     3.8710    21.2470    48.6390 </r>
       <r>     3.9572    22.5220    50.5801 </r>
       <r>     4.0433    11.1919    51.5447 </r>
       <r>     4.1295    18.2505    53.1177 </r>
       <r>     4.2157    20.2558    54.8635 </r>
       <r>     4.3019    13.1771    55.9992 </r>
       <r>     4.3881    10.0208    56.8628 </r>
       <r>     4.4743     4.9266    57.2875 </r>
       <r>     4.5605     8.2540    57.9989 </r>
       <r>     4.6467    12.9884    59.1183 </r>
       <r>     4.7329    15.7438    60.4752 </r>
       <r>     4.8190     9.4659    61.2911 </r>
       <r>     4.9052    22.0250    63.1894 </r>
       <r>     4.9914    24.5743    65.3074 </r>
       <r>     5.0776    17.6265    66.8266 </r>
       <r>     5.1638    14.3566    68.0639 </r>
       <r>     5.2500    21.4158    69.9097 </r>
       <r>     5.3362    18.8310    71.5327 </r>
       <r>     5.4224    26.4499    73.8124 </r>
       <r>     5.5085    14.1392    75.0310 </r>
       <r>     5.5947    17.6453    76.5518 </r>
       <r>     5.6809    19.2875    78.2142 </r>
       <r>     5.7671    14.7377    79.4844 </r>
       <r>     5.8533     6.8129    80.0716 </r>
       <r>     5.9395     8.9869    80.8461 </r>
       <r>     6.0257     1.7821    80.9997 </r>
       <r>     6.1119     0.0032    81.0000 </r>
       <r>     6.1980     0.0000    81.0000 </r>
       <r>     6.2842     0.0000    81.0000 </r>
       <r>     6.3704     0.0000    81.0000 </r>
       <r>     6.4566     0.0000    81.0000 </r>
       <r>     6.5428     0.0000    81.0000 </r>
       <r>     6.6290     0.0000    81.0000 </r>
       <r>     6.7152     0.0000    81.0000 </r>
       <r>     6.8014     0.0000    81.0000 </r>
       <r>     6.8875     0.0000    81.0000 </r>
       <r>     6.9737     0.0000    81.0000 </r>
       <r>     7.0599     0.0242    81.0021 </r>
       <r>     7.1461     4.0368    81.3500 </r>
       <r>     7.2323    16.0195    82.7307 </r>
       <r>     7.3185    13.7121    83.9125 </r>
       <r>     7.4047     3.3545    84.2016 </r>
       <r>     7.4909    16.8488    85.6538 </r>
       <r>     7.5771    24.5120    87.7664 </r>
       <r>     7.6632     9.6462    88.5978 </r>
       <r>     7.7494    16.5573    90.0249 </r>
       <r>     7.8356    19.3895    91.6960 </r>
       <r>     7.9218     9.7130    92.5331 </r>
       <r>     8.0080     5.3528    92.9945 </r>
       <r>     8.0942     1.9264    93.1605 </r>
       <r>     8.1804    12.2573    94.2170 </r>
       <r>     8.2666    12.0077    95.2519 </r>
       <r>     8.3527    15.0372    96.5479 </r>
       <r>     8.4389    13.9989    97.7544 </r>
       <r>     8.5251    14.8883    99.0376 </r>
       <r>     8.6113    13.3745   100.1903 </r>
       <r>     8.6975    20.8979   101.9915 </r>
       <r>     8.7837    18.5634   103.5914 </r>
       <r>     8.8699    22.9870   105.5726 </r>
       <r>     8.9561    17.6706   107.0956 </r>
       <r>     9.0422    24.8362   109.2362 </r>
       <r>     9.1284    18.4974   110.8304 </r>
       <r>     9.2146    18.3546   112.4124 </r>
       <r>     9.3008    27.6430   114.7949 </r>
       <r>     9.3870    17.1331   116.2716 </r>
       <r>     9.4732    24.0953   118.3483 </r>
       <r>     9.5594    11.7247   119.3588 </r>
       <r>     9.6456    16.1904   120.7542 </r>
       <r>     9.7317    18.1447   122.3181 </r>
       <r>     9.8179    14.3318   123.5533 </r>
       <r>     9.9041    14.5153   124.8043 </r>
       <r>     9.9903    14.5799   126.0609 </r>
       <r>    10.0765    18.7376   127.6759 </r>
       <r>    10.1627    17.1606   129.1549 </r>
       <r>    10.2489    20.2550   130.9007 </r>
       <r>    10.3351    26.6167   133.1947 </r>
       <r>    10.4213    17.2931   134.6851 </r>
       <r>    10.5074    17.0581   136.1553 </r>
       <r>    10.5936    17.1454   137.6331 </r>
       <r>    10.6798    27.0936   139.9682 </r>
       <r>    10.7660    19.8421   141.6784 </r>
       <r>    10.8522    27.5736   144.0549 </r>
       <r>    10.9384    19.6455   145.7481 </r>
       <r>    11.0246    16.6317   147.1815 </r>
       <r>    11.1108     8.9460   147.9526 </r>
       <r>    11.1969     1.3399   148.0680 </r>
       <r>    11.2831     9.0712   148.8499 </r>
       <r>    11.3693    10.5880   149.7624 </r>
       <r>    11.4555    17.1661   151.2419 </r>
       <r>    11.5417    24.0167   153.3119 </r>
       <r>    11.6279    26.3127   155.5797 </r>
       <r>    11.7141    21.3411   157.4191 </r>
       <r>    11.8003    21.8311   159.3006 </r>
       <r>    11.8864    22.5575   161.2448 </r>
       <r>    11.9726    19.7235   162.9448 </r>
       <r>    12.0588    14.1673   164.1658 </r>
       <r>    12.1450    19.6347   165.8581 </r>
       <r>    12.2312    19.0518   167.5001 </r>
       <r>    12.3174    17.0262   168.9676 </r>
       <r>    12.4036    18.6714   170.5768 </r>
       <r>    12.4898     4.8821   170.9976 </r>
       <r>    12.5759     0.7269   171.0602 </r>
       <r>    12.6621     8.7214   171.8119 </r>
       <r>    12.7483     2.2741   172.0079 </r>
       <r>    12.8345     5.9218   172.5183 </r>
       <r>    12.9207     7.5368   173.1679 </r>
       <r>    13.0069     8.9282   173.9374 </r>
       <r>    13.0931     5.5746   174.4179 </r>
       <r>    13.1793     6.7994   175.0039 </r>
       <r>    13.2655     9.8152   175.8498 </r>
       <r>    13.3516    22.9635   177.8290 </r>
       <r>    13.4378    12.3753   178.8956 </r>
       <r>    13.5240    11.9923   179.9292 </r>
       <r>    13.6102    11.0476   180.8814 </r>
       <r>    13.6964    14.8292   182.1595 </r>
       <r>    13.7826    13.6102   183.3325 </r>
       <r>    13.8688    16.5742   184.7610 </r>
       <r>    13.9550    19.6877   186.4578 </r>
       <r>    14.0411    12.5166   187.5366 </r>
       <r>    14.1273    20.8758   189.3359 </r>
       <r>    14.2135    20.0454   191.0635 </r>
       <r>    14.2997    24.2374   193.1525 </r>
       <r>    14.3859    24.7663   195.2870 </r>
       <r>    14.4721    14.7507   196.5584 </r>
       <r>    14.5583    19.0032   198.1962 </r>
       <r>    14.6445    17.9778   199.7457 </r>
       <r>    14.7306    23.1549   201.7414 </r>
       <r>    14.8168    29.0025   204.2410 </r>
       <r>    14.9030    20.0922   205.9727 </r>
       <r>    14.9892    20.3827   207.7295 </r>
       <r>    15.0754    15.4130   209.0579 </r>
       <r>    15.1616    20.2556   210.8037 </r>
       <r>    15.2478    24.1120   212.8818 </r>
       <r>    15.3340    25.1929   215.0532 </r>
       <r>    15.4201    30.0231   217.6408 </r>
       <r>    15.5063    26.9159   219.9606 </r>
       <r>    15.5925    21.8154   221.8408 </r>
       <r>    15.6787    17.1488   223.3189 </r>
       <r>    15.7649    19.6372   225.0113 </r>
       <r>    15.8511    25.1917   227.1826 </r>
       <r>    15.9373    26.4854   229.4653 </r>
       <r>    16.0235    19.0491   231.1071 </r>
       <r>    16.1096    22.5498   233.0506 </r>
       <r>    16.1958    26.6724   235.3494 </r>
       <r>    16.2820    23.8377   237.4040 </r>
       <r>    16.3682    17.8507   238.9425 </r>
       <r>    16.4544    15.8499   240.3085 </r>
       <r>    16.5406    18.7145   241.9215 </r>
       <r>    16.6268    15.1558   243.2278 </r>
       <r>    16.7130    21.4196   245.0739 </r>
       <r>    16.7992    24.3106   247.1691 </r>
       <r>    16.8853    17.3108   248.6611 </r>
       <r>    16.9715    14.7652   249.9337 </r>
       <r>    17.0577     0.8513   250.0071 </r>
       <r>    17.1439     5.6534   250.4943 </r>
       <r>    17.2301     5.7780   250.9923 </r>
       <r>    17.3163     0.0892   251.0000 </r>
       <r>    17.4025     0.0000   251.0000 </r>
       <r>    17.4887     0.0000   251.0000 </r>
       <r>    17.5748     0.0000   251.0000 </r>
       <r>    17.6610     0.0001   251.0000 </r>
       <r>    17.7472     0.2880   251.0248 </r>
       <r>    17.8334     8.3686   251.7461 </r>
       <r>    17.9196    12.5236   252.8255 </r>
       <r>    18.0058     9.7000   253.6615 </r>
       <r>    18.0920    14.5938   254.9193 </r>
       <r>    18.1782     1.3705   255.0374 </r>
       <r>    18.2643    11.5175   256.0301 </r>
       <r>    18.3505    11.6229   257.0319 </r>
       <r>    18.4367    11.2008   257.9972 </r>
       <r>    18.5229    26.0663   260.2438 </r>
       <r>    18.6091    19.3433   261.9110 </r>
       <r>    18.6953    12.7516   263.0100 </r>
       <r>    18.7815    31.5326   265.7278 </r>
       <r>    18.8677    20.6285   267.5057 </r>
       <r>    18.9538    34.1790   270.4515 </r>
       <r>    19.0400    23.9311   272.5141 </r>
       <r>    19.1262    32.8147   275.3423 </r>
       <r>    19.2124    25.1804   277.5125 </r>
       <r>    19.2986    28.5963   279.9772 </r>
       <r>    19.3848    22.6033   281.9253 </r>
       <r>    19.4710    25.9761   284.1642 </r>
       <r>    19.5572    33.5975   287.0598 </r>
       <r>    19.6434    29.6994   289.6196 </r>
       <r>    19.7295    20.2525   291.3651 </r>
       <r>    19.8157    22.6564   293.3178 </r>
       <r>    19.9019    19.9208   295.0347 </r>
       <r>    19.9881    30.6537   297.6767 </r>
       <r>    20.0743    12.6313   298.7654 </r>
       <r>    20.1605    20.0567   300.4940 </r>
       <r>    20.2467    16.3753   301.9054 </r>
       <r>    20.3329    10.3429   302.7968 </r>
       <r>    20.4190    13.2208   303.9363 </r>
       <r>    20.5052     0.7390   304.0000 </r>
       <r>    20.5914     0.0004   304.0000 </r>
       <r>    20.6776     0.0000   304.0000 </r>
       <r>    20.7638     0.0000   304.0000 </r>
       <r>    20.8500     0.0000   304.0000 </r>
       <r>    20.9362     0.0000   304.0000 </r>
       <r>    21.0224     0.0000   304.0000 </r>
       <r>    21.1085     0.0000   304.0000 </r>
       <r>    21.1947     0.0000   304.0000 </r>
       <r>    21.2809     0.0000   304.0000 </r>
       <r>    21.3671     0.0000   304.0000 </r>
       <r>    21.4533     0.0000   304.0000 </r>
       <r>    21.5395     0.0000   304.0000 </r>
      </set>
     </set>
    </array>
   </total>
  </dos>
 </calculation>
 <structure name="finalpos" >
  <crystal>
   <varray name="basis" >
    <v>      10.21149500       0.00000000       0.00000000 </v>
    <v>       0.00000000      10.21149500       0.00000000 </v>
    <v>       0.00000000       0.00000000      10.21149500 </v>
   </varray>
   <i name="volume">   1064.79986425 </i>
   <varray name="rec_basis" >
    <v>       0.09792885       0.00000000       0.00000000 </v>
    <v>       0.00000000       0.09792885       0.00000000 </v>
    <v>       0.00000000       0.00000000       0.09792885 </v>
   </varray>
  </crystal>
  <varray name="positions" >
   <v>       0.05931660       0.13215700       0.00458000 </v>
   <v>       0.11225500       0.74779000       0.39265700 </v>
   <v>       0.29109200       0.57256900       0.91085000 </v>
   <v>       0.06238180       0.29660300       0.19527200 </v>
   <v>       0.40041100       0.04509110       0.15979100 </v>
   <v>       0.52883400       0.09421600       0.61774900 </v>
   <v>       0.59818200       0.51143100       0.32309300 </v>
   <v>       0.10981500       0.26395100       0.77332900 </v>
   <v>       0.02703620       0.06222740       0.20462700 </v>
   <v>       0.67307300       0.71093000       0.50733900 </v>
   <v>       0.83033900       0.66390700       0.68029600 </v>
   <v>       0.46757600       0.33723900       0.62422500 </v>
   <v>       0.74937500       0.85581600       0.64670000 </v>
   <v>       0.63704600       0.95927000       0.23157500 </v>
   <v>       0.91152700       0.68516200       0.01634120 </v>
   <v>       0.82459700       0.09825170       0.33354000 </v>
   <v>       0.11589600       0.08797730       0.61323700 </v>
   <v>       0.90694400       0.30395900       0.92529200 </v>
   <v>       0.17386800       0.80244900       0.93187500 </v>
   <v>       0.84112700       0.29681200       0.45473100 </v>
   <v>       0.99389100       0.90465400       0.98612600 </v>
   <v>       0.47698800       0.80169300       0.57636600 </v>
   <v>       0.02676880       0.59550100       0.55977600 </v>
   <v>       0.26810200       0.18761900       0.09880350 </v>
   <v>       0.51674500       0.93808800       0.74503500 </v>
   <v>       0.58590100       0.75485700       0.31870500 </v>
   <v>       0.66616500       0.81468000       0.06700770 </v>
   <v>       0.75176500       0.86600600       0.87646600 </v>
   <v>       0.70099500       0.08393760       0.75261400 </v>
   <v>       0.42199700       0.54043700       0.70944100 </v>
   <v>       0.82312400       0.84540500       0.35982000 </v>
   <v>       0.40082500       0.94955100       0.93597900 </v>
   <v>       0.22976700       0.85673200       0.20415300 </v>
   <v>       0.86548800       0.18964000       0.12388000 </v>
   <v>       0.38777200       0.15529500       0.45170800 </v>
   <v>       0.59466300       0.28452100       0.81684200 </v>
   <v>       0.29004400       0.44635800       0.15868900 </v>
   <v>       0.97889100       0.71748200       0.80160800 </v>
   <v>       0.12635300       0.36332400       0.98822300 </v>
   <v>       0.20919900       0.97025200       0.05037260 </v>
   <v>       0.43096500       0.25757000       0.22524200 </v>
   <v>       0.33727000       0.75555400       0.77940600 </v>
   <v>       0.66742900       0.00095261       0.46685300 </v>
   <v>       0.27023700       0.39973400       0.77386200 </v>
   <v>       0.04380700       0.61269500       0.24430900 </v>
   <v>       0.78637600       0.42429700       0.26065700 </v>
   <v>       0.23845600       0.66287200       0.11198800 </v>
   <v>       0.99176583       0.48066500       0.79121100 </v>
   <v>       0.26291400       0.68740800       0.52846800 </v>
   <v>       0.97060200       0.45900500       0.10008700 </v>
   <v>       0.87235100       0.44239500       0.63804300 </v>
   <v>       0.27188800       0.44602000       0.56425700 </v>
   <v>       0.13036300       0.99498693       0.82294300 </v>
   <v>       0.65282000       0.17570900       0.19081400 </v>
   <v>       0.67553400       0.25740400       0.61201100 </v>
   <v>       0.02947730       0.19881600       0.40017800 </v>
   <v>       0.69757500       0.25005800       0.00786000 </v>
   <v>       0.85990400       0.61702600       0.41014100 </v>
   <v>       0.24282300       0.53553300       0.36562500 </v>
   <v>       0.42955700       0.71633500       0.98003400 </v>
   <v>       0.72474400       0.65796100       0.86687800 </v>
   <v>       0.55325700       0.71960800       0.76552200 </v>
   <v>       0.27842800       0.95172600       0.49572000 </v>
   <v>       0.89362400       0.06580750       0.56926400 </v>
   <v>       0.47291300       0.95860600       0.40543900 </v>
   <v>       0.41850300       0.18806900       0.78719600 </v>
   <v>       0.47491000       0.19809600       0.99779904 </v>
   <v>       0.22329500       0.33075500       0.35504000 </v>
   <v>       0.24385700       0.12015400       0.30504700 </v>
   <v>       0.45590400       0.82321800       0.14297800 </v>
   <v>       0.93901500       0.95053400       0.75601600 </v>
   <v>       0.37393800       0.38716500       0.95802700 </v>
   <v>       0.18112400       0.60535100       0.71205200 </v>
   <v>       0.88091600       0.22665300       0.73034200 </v>
   <v>       0.83602000       0.96966700       0.14418900 </v>
   <v>       0.01439000       0.44523100       0.36351700 </v>
   <v>       0.24966000       0.15282700       0.87996700 </v>
   <v>       0.54696500       0.53622800       0.90785900 </v>
   <v>       0.73135800       0.49719100       0.50333400 </v>
   <v>       0.77195700       0.44886500       0.05420280 </v>
   <v>       0.56213300       0.39021300       0.11279500 </v>
   <v>       0.98233450       0.81872300       0.21337600 </v>
   <v>       0.07646920       0.34166700       0.58665500 </v>
   <v>       0.63846300       0.25154200       0.39578900 </v>
   <v>       0.62048500       0.99453136       0.00145000 </v>
   <v>       0.78402000       0.67159600       0.22377900 </v>
   <v>       0.84052300       0.09436560       0.91671600 </v>
   <v>       0.15142000       0.82268700       0.66089300 </v>
   <v>       0.27417000       0.20779400       0.60424400 </v>
   <v>       0.30724400       0.97210540       0.70066200 </v>
   <v>       0.62856800       0.48787500       0.68684900 </v>
   <v>       0.95078400       0.80706500       0.54992200 </v>
   <v>       0.42901700       0.59950100       0.22554300 </v>
   <v>       0.35230700       0.78927600       0.37082400 </v>
   <v>       0.09124310       0.59568900       0.99430000 </v>
   <v>       0.04136000       0.96038400       0.39866600 </v>
   <v>       0.77828100       0.44479300       0.83128900 </v>
   <v>       0.47308800       0.56251400       0.50131600 </v>
   <v>       0.61212900       0.60619100       0.12593400 </v>
   <v>       0.44293300       0.37889700       0.39590300 </v>
  </varray>
 </structure>
</modeling>
