unknown system                          
           1
    10.211495    0.000000    0.000000
     0.000000   10.211495    0.000000
     0.000000    0.000000   10.211495
   Si
 100
Direct configuration=     1
   0.05931660  0.13215700  0.00458000
   0.11225500  0.74779000  0.39265700
   0.29109200  0.57256900  0.91085000
   0.06238180  0.29660300  0.19527200
   0.40041100  0.04509110  0.15979100
   0.52883400  0.09421600  0.61774900
   0.59818200  0.51143100  0.32309300
   0.10981500  0.26395100  0.77332900
   0.02703620  0.06222740  0.20462700
   0.67307300  0.71093000  0.50733900
   0.83033900  0.66390700  0.68029600
   0.46757600  0.33723900  0.62422500
   0.74937500  0.85581600  0.64670000
   0.63704600  0.95927000  0.23157500
   0.91152700  0.68516200  0.01634120
   0.82459700  0.09825170  0.33354000
   0.11589600  0.08797730  0.61323700
   0.90694400  0.30395900  0.92529200
   0.17386800  0.80244900  0.93187500
   0.84112700  0.29681200  0.45473100
   0.99389100  0.90465400  0.98612600
   0.47698800  0.80169300  0.57636600
   0.02676880  0.59550100  0.55977600
   0.26810200  0.18761900  0.09880350
   0.51674500  0.93808800  0.74503500
   0.58590100  0.75485700  0.31870500
   0.66616500  0.81468000  0.06700770
   0.75176500  0.86600600  0.87646600
   0.70099500  0.08393760  0.75261400
   0.42199700  0.54043700  0.70944100
   0.82312400  0.84540500  0.35982000
   0.40082500  0.94955100  0.93597900
   0.22976700  0.85673200  0.20415300
   0.86548800  0.18964000  0.12388000
   0.38777200  0.15529500  0.45170800
   0.59466300  0.28452100  0.81684200
   0.29004400  0.44635800  0.15868900
   0.97889100  0.71748200  0.80160800
   0.12635300  0.36332400  0.98822300
   0.20919900  0.97025200  0.05037260
   0.43096500  0.25757000  0.22524200
   0.33727000  0.75555400  0.77940600
   0.66742900  0.00095261  0.46685300
   0.27023700  0.39973400  0.77386200
   0.04380700  0.61269500  0.24430900
   0.78637600  0.42429700  0.26065700
   0.23845600  0.66287200  0.11198800
   0.99176583  0.48066500  0.79121100
   0.26291400  0.68740800  0.52846800
   0.97060200  0.45900500  0.10008700
   0.87235100  0.44239500  0.63804300
   0.27188800  0.44602000  0.56425700
   0.13036300  0.99498693  0.82294300
   0.65282000  0.17570900  0.19081400
   0.67553400  0.25740400  0.61201100
   0.02947730  0.19881600  0.40017800
   0.69757500  0.25005800  0.00786000
   0.85990400  0.61702600  0.41014100
   0.24282300  0.53553300  0.36562500
   0.42955700  0.71633500  0.98003400
   0.72474400  0.65796100  0.86687800
   0.55325700  0.71960800  0.76552200
   0.27842800  0.95172600  0.49572000
   0.89362400  0.06580750  0.56926400
   0.47291300  0.95860600  0.40543900
   0.41850300  0.18806900  0.78719600
   0.47491000  0.19809600  0.99779904
   0.22329500  0.33075500  0.35504000
   0.24385700  0.12015400  0.30504700
   0.45590400  0.82321800  0.14297800
   0.93901500  0.95053400  0.75601600
   0.37393800  0.38716500  0.95802700
   0.18112400  0.60535100  0.71205200
   0.88091600  0.22665300  0.73034200
   0.83602000  0.96966700  0.14418900
   0.01439000  0.44523100  0.36351700
   0.24966000  0.15282700  0.87996700
   0.54696500  0.53622800  0.90785900
   0.73135800  0.49719100  0.50333400
   0.77195700  0.44886500  0.05420280
   0.56213300  0.39021300  0.11279500
   0.98233450  0.81872300  0.21337600
   0.07646920  0.34166700  0.58665500
   0.63846300  0.25154200  0.39578900
   0.62048500  0.99453136  0.00145000
   0.78402000  0.67159600  0.22377900
   0.84052300  0.09436560  0.91671600
   0.15142000  0.82268700  0.66089300
   0.27417000  0.20779400  0.60424400
   0.30724400  0.97210540  0.70066200
   0.62856800  0.48787500  0.68684900
   0.95078400  0.80706500  0.54992200
   0.42901700  0.59950100  0.22554300
   0.35230700  0.78927600  0.37082400
   0.09124310  0.59568900  0.99430000
   0.04136000  0.96038400  0.39866600
   0.77828100  0.44479300  0.83128900
   0.47308800  0.56251400  0.50131600
   0.61212900  0.60619100  0.12593400
   0.44293300  0.37889700  0.39590300
